# LAMMPS data file
126 atoms
126 ellipsoids
124 bonds

4 atom types
2 bond types

# System size
-50.000000 50.000000 xlo xhi
-50.000000 50.000000 ylo yhi
-50.000000 50.000000 zlo zhi

Masses

1 3.1575
2 3.1575
3 3.1575
4 3.1575

# Atom-ID, type, position, molecule-ID, ellipsoid flag, density
Atoms

1 1 -6.662826538085938e-01 -7.930461883544922e+00 -8.992691040039062e+00 1 1 1
2 1 -5.511474609375000e-01 -7.804715633392334e+00 -8.456092834472656e+00 1 1 1
3 1 -2.812957763671875e-01 -7.353430747985840e+00 -8.113929748535156e+00 1 1 1
4 1  5.896759033203125e-02 -6.867774486541748e+00 -8.042465209960938e+00 1 1 1
5 1  7.067871093750000e-02 -6.366380691528320e+00 -8.092796325683594e+00 1 1 1
6 1 -1.381530761718750e-01 -5.815862178802490e+00 -8.121788024902344e+00 1 1 1
7 2 -4.286041259765625e-01 -5.438531875610352e+00 -8.263236999511719e+00 1 1 1
8 3 -9.241638183593750e-01 -5.053435802459717e+00 -8.216224670410156e+00 1 1 1
9 2 -1.375892639160156e+00 -4.838769912719727e+00 -8.075019836425781e+00 1 1 1
10 3 -1.575149536132812e+00 -4.533438205718994e+00 -7.671745300292969e+00 1 1 1
11 1 -1.677474975585938e+00 -4.406272411346436e+00 -7.149085998535156e+00 1 1 1
12 1 -1.609558105468750e+00 -4.291658878326416e+00 -6.593246459960938e+00 1 1 1
13 1 -1.262649536132812e+00 -4.235986709594727e+00 -6.202178955078125e+00 1 1 1
14 1 -7.890396118164062e-01 -4.087447166442871e+00 -6.063720703125000e+00 1 1 1
15 1 -4.821472167968750e-01 -3.677510738372803e+00 -5.883399963378906e+00 1 1 1
16 1 -3.259124755859375e-01 -3.205404043197632e+00 -5.585151672363281e+00 1 1 1
17 2 -4.542999267578125e-01 -2.716599464416504e+00 -5.433013916015625e+00 1 1 1
18 3 -6.487960815429688e-01 -2.325172185897827e+00 -5.095222473144531e+00 1 1 1
19 3 -8.682327270507812e-01 -2.070508480072021e+00 -4.664199829101562e+00 1 1 1
20 3 -1.125976562500000e+00 -2.045622110366821e+00 -4.200202941894531e+00 1 1 1
21 2 -1.190658569335938e+00 -2.158947706222534e+00 -3.676322937011719e+00 1 1 1
22 1 -1.129478454589844e+00 -2.372621059417725e+00 -3.210945129394531e+00 1 1 1
23 1 -8.769378662109375e-01 -2.378633975982666e+00 -2.773590087890625e+00 1 1 1
24 1 -6.268844604492188e-01 -2.275333166122437e+00 -2.354179382324219e+00 1 1 1
25 1 -1.528625488281250e-01 -1.998371005058289e+00 -2.179122924804688e+00 1 1 1
26 1  7.928466796875000e-02 -1.572240471839905e+00 -2.046363830566406e+00 1 1 1
27 1  2.281646728515625e-01 -1.118110775947571e+00 -1.727447509765625e+00 1 1 1
28 2  1.035842895507812e-01 -6.885505318641663e-01 -1.512367248535156e+00 1 1 1
29 3 -1.262664794921875e-02 -2.760084271430969e-01 -1.152130126953125e+00 1 1 1
30 2 -4.088745117187500e-01 -1.654081791639328e-01 -8.596878051757812e-01 1 1 1
31 3 -6.784973144531250e-01 -1.282060593366623e-01 -4.340744018554688e-01 1 1 1
32 1 -7.773971557617188e-01 -7.663565129041672e-02  9.974670410156250e-02 1 1 1
33 1 -6.166381835937500e-01 -8.415370434522629e-02  6.920471191406250e-01 1 1 1
34 1 -3.260116577148438e-01 -1.096871420741081e-01  1.076675415039062e+00 1 1 1
35 1  4.136657714843750e-02 -6.242803297936916e-03  1.434669494628906e+00 1 1 1
36 1  5.158081054687500e-01  1.903500109910965e-01  1.458763122558594e+00 1 1 1
37 1  8.437881469726562e-01  6.103932261466980e-01  1.779052734375000e+00 1 1 1
38 2  1.002250671386719e+00  1.098141908645630e+00  1.911949157714844e+00 1 1 1
39 3  9.811325073242188e-01  1.617936372756958e+00  2.135452270507812e+00 1 1 1
40 3  8.291549682617188e-01  2.009824991226196e+00  2.439025878906250e+00 1 1 1
41 3  4.809722900390625e-01  2.199373960494995e+00  2.914108276367188e+00 1 1 1
42 2  2.641143798828125e-01  2.108910322189331e+00  3.375442504882812e+00 1 1 1
43 1  1.782226562500000e-01  2.024193048477173e+00  3.888885498046875e+00 1 1 1
44 1  3.634185791015625e-01  1.995324850082397e+00  4.423255920410156e+00 1 1 1
45 1  7.425537109375000e-01  2.050641775131226e+00  4.804840087890625e+00 1 1 1
46 1  1.094474792480469e+00  2.346764802932739e+00  5.157669067382812e+00 1 1 1
47 1  1.431098937988281e+00  2.738886594772339e+00  5.302680969238281e+00 1 1 1
48 1  1.530227661132812e+00  3.200577974319458e+00  5.413070678710938e+00 1 1 1
49 2  1.551383972167969e+00  3.722234964370728e+00  5.489936828613281e+00 1 1 1
50 3  1.404655456542969e+00  4.177607059478760e+00  5.732513427734375e+00 1 1 1
51 2  9.611511230468750e-01  4.390496730804443e+00  5.955848693847656e+00 1 1 1
52 3  6.388549804687500e-01  4.566911220550537e+00  6.374473571777344e+00 1 1 1
53 1  4.098968505859375e-01  4.571541786193848e+00  6.839469909667969e+00 1 1 1
54 1  3.730926513671875e-01  4.649883747100830e+00  7.402961730957031e+00 1 1 1
55 1  5.715179443359375e-01  4.854030132293701e+00  7.839813232421875e+00 1 1 1
56 1  8.111419677734375e-01  5.315434455871582e+00  8.162872314453125e+00 1 1 1
57 1  1.029991149902344e+00  5.853110313415527e+00  8.141685485839844e+00 1 1 1
58 1  1.091445922851562e+00  6.366027832031250e+00  8.085670471191406e+00 1 1 1
59 2  9.595565795898438e-01  6.860008239746094e+00  7.869529724121094e+00 1 1 1
60 3  6.830368041992188e-01  7.213159561157227e+00  7.824211120605469e+00 1 1 1
61 3  3.217239379882812e-01  7.542652130126953e+00  7.953865051269531e+00 1 1 1
62 3 -3.665161132812500e-02  7.736762046813965e+00  8.255004882812500e+00 1 1 1
63 2 -2.490539550781250e-01  7.831822395324707e+00  8.680084228515625e+00 1 1 1
64 3  9.926376342773438e-01  7.982972145080566e+00  8.857307434082031e+00 2 1 1
65 2  8.795013427734375e-01  7.539454460144043e+00  9.068687438964844e+00 2 1 1
66 2  5.532226562500000e-01  7.116581916809082e+00  9.034004211425781e+00 2 1 1
67 2  2.604827880859375e-01  6.681617736816406e+00  8.799415588378906e+00 2 1 1
68 3 -4.076385498046875e-02  6.475192070007324e+00  8.364677429199219e+00 2 1 1
69 4 -6.850433349609375e-02  6.210174560546875e+00  7.881401062011719e+00 2 1 1
70 4  1.510391235351562e-01  6.027399063110352e+00  7.367546081542969e+00 2 1 1
71 4  5.349884033203125e-01  5.796151161193848e+00  7.137001037597656e+00 2 1 1
72 4  9.918899536132812e-01  5.662055015563965e+00  6.980285644531250e+00 2 1 1
73 4  1.363540649414062e+00  5.216459274291992e+00  6.981796264648438e+00 2 1 1
74 4  1.545372009277344e+00  4.714628696441650e+00  7.031753540039062e+00 2 1 1
75 2  1.612686157226562e+00  4.133826732635498e+00  6.961219787597656e+00 2 1 1
76 3  1.364662170410156e+00  3.652072191238403e+00  6.812896728515625e+00 2 1 1
77 2  1.019668579101562e+00  3.371874570846558e+00  6.481147766113281e+00 2 1 1
78 3  6.011581420898438e-01  3.365967988967896e+00  6.096740722656250e+00 2 1 1
79 4  3.677902221679688e-01  3.407268762588501e+00  5.591781616210938e+00 2 1 1
80 4  3.207702636718750e-01  3.187901258468628e+00  5.042587280273438e+00 2 1 1
81 4  5.773544311523438e-01  3.238385915756226e+00  4.578239440917969e+00 2 1 1
82 4  9.782562255859375e-01  3.025203943252563e+00  4.152618408203125e+00 2 1 1
83 4  1.265892028808594e+00  2.593620538711548e+00  3.890716552734375e+00 2 1 1
84 4  1.366088867187500e+00  2.119037389755249e+00  3.726943969726562e+00 2 1 1
85 3  1.298286437988281e+00  1.603020429611206e+00  3.501609802246094e+00 2 1 1
86 2  1.027954101562500e+00  1.204073190689087e+00  3.315612792968750e+00 2 1 1
87 2  6.478500366210938e-01  1.008667230606079e+00  3.075164794921875e+00 2 1 1
88 2  2.336654663085938e-01  9.712991118431091e-01  2.773231506347656e+00 2 1 1
89 3 -9.915924072265625e-02  1.098850965499878e+00  2.318717956542969e+00 2 1 1
90 4 -1.900939941406250e-01  1.187269449234009e+00  1.822952270507812e+00 2 1 1
91 4 -1.241836547851562e-01  1.201067686080933e+00  1.246421813964844e+00 2 1 1
92 4  2.525329589843750e-02  1.045567274093628e+00  7.533035278320312e-01 2 1 1
93 4  3.131484985351562e-01  6.825272440910339e-01  5.138549804687500e-01 2 1 1
94 4  4.352493286132812e-01  2.850846648216248e-01  2.211303710937500e-01 2 1 1
95 4  3.709182739257812e-01 -2.492790669202805e-01  2.455215454101562e-01 2 1 1
96 2  3.218231201171875e-01 -6.935687661170959e-01  4.764556884765625e-02 2 1 1
97 3  1.457901000976562e-01 -1.113116264343262e+00 -2.534561157226562e-01 2 1 1
98 2 -3.105392456054688e-01 -1.267759561538696e+00 -5.274658203125000e-01 2 1 1
99 3 -6.867828369140625e-01 -1.376369237899780e+00 -9.067993164062500e-01 2 1 1
100 4 -9.222030639648438e-01 -1.382884621620178e+00 -1.424667358398438e+00 2 1 1
101 4 -1.028907775878906e+00 -1.224480509757996e+00 -1.883964538574219e+00 2 1 1
102 4 -9.163589477539062e-01 -1.024343132972717e+00 -2.368888854980469e+00 2 1 1
103 4 -5.999145507812500e-01 -1.147709131240845e+00 -2.845603942871094e+00 2 1 1
104 4 -2.827072143554688e-01 -1.457974195480347e+00 -3.243637084960938e+00 2 1 1
105 4 -4.933166503906250e-02 -1.889748811721802e+00 -3.428459167480469e+00 2 1 1
106 3 -3.719329833984375e-02 -2.386748313903809e+00 -3.685607910156250e+00 2 1 1
107 2 -2.129135131835938e-01 -2.825538635253906e+00 -3.883781433105469e+00 2 1 1
108 2 -5.886001586914062e-01 -3.122258424758911e+00 -4.149230957031250e+00 2 1 1
109 2 -1.043388366699219e+00 -3.245260477066040e+00 -4.536796569824219e+00 2 1 1
110 3 -1.349967956542969e+00 -3.282507419586182e+00 -4.911788940429688e+00 2 1 1
111 4 -1.527900695800781e+00 -3.173557043075562e+00 -5.399986267089844e+00 2 1 1
112 4 -1.462242126464844e+00 -3.029436349868774e+00 -5.968742370605469e+00 2 1 1
113 4 -1.306938171386719e+00 -3.071449279785156e+00 -6.489570617675781e+00 2 1 1
114 4 -1.047500610351562e+00 -3.308531284332275e+00 -6.902549743652344e+00 2 1 1
115 4 -7.268600463867188e-01 -3.648053169250488e+00 -7.109085083007812e+00 2 1 1
116 4 -5.032653808593750e-01 -4.139131069183350e+00 -7.143356323242188e+00 2 1 1
117 2 -5.443344116210938e-01 -4.653394699096680e+00 -7.188217163085938e+00 2 1 1
118 3 -7.331161499023438e-01 -5.137787818908691e+00 -7.095512390136719e+00 2 1 1
119 2 -1.027687072753906e+00 -5.627459526062012e+00 -7.173431396484375e+00 2 1 1
120 3 -1.170913696289062e+00 -5.989671707153320e+00 -7.569831848144531e+00 2 1 1
121 4 -1.205741882324219e+00 -6.285730838775635e+00 -8.027992248535156e+00 2 1 1
122 4 -9.865036010742188e-01 -6.509115219116211e+00 -8.591415405273438e+00 2 1 1
123 4 -6.662139892578125e-01 -6.720611095428467e+00 -9.011650085449219e+00 2 1 1
124 4 -2.090148925781250e-01 -6.932180404663086e+00 -9.227996826171875e+00 2 1 1
125 4  2.119598388671875e-01 -7.215279579162598e+00 -9.191551208496094e+00 2 1 1
126 4  5.112991333007812e-01 -7.675448417663574e+00 -9.160804748535156e+00 2 1 1

# Atom-ID, translational, rotational velocity
Velocities

1  0.000000000000000e+00  0.000000000000000e+00  0.000000000000000e+00  0.000000000000000e+00  0.000000000000000e+00  0.000000000000000e+00
2  0.000000000000000e+00  0.000000000000000e+00  0.000000000000000e+00  0.000000000000000e+00  0.000000000000000e+00  0.000000000000000e+00
3  0.000000000000000e+00  0.000000000000000e+00  0.000000000000000e+00  0.000000000000000e+00  0.000000000000000e+00  0.000000000000000e+00
4  0.000000000000000e+00  0.000000000000000e+00  0.000000000000000e+00  0.000000000000000e+00  0.000000000000000e+00  0.000000000000000e+00
5  0.000000000000000e+00  0.000000000000000e+00  0.000000000000000e+00  0.000000000000000e+00  0.000000000000000e+00  0.000000000000000e+00
6  0.000000000000000e+00  0.000000000000000e+00  0.000000000000000e+00  0.000000000000000e+00  0.000000000000000e+00  0.000000000000000e+00
7  0.000000000000000e+00  0.000000000000000e+00  0.000000000000000e+00  0.000000000000000e+00  0.000000000000000e+00  0.000000000000000e+00
8  0.000000000000000e+00  0.000000000000000e+00  0.000000000000000e+00  0.000000000000000e+00  0.000000000000000e+00  0.000000000000000e+00
9  0.000000000000000e+00  0.000000000000000e+00  0.000000000000000e+00  0.000000000000000e+00  0.000000000000000e+00  0.000000000000000e+00
10  0.000000000000000e+00  0.000000000000000e+00  0.000000000000000e+00  0.000000000000000e+00  0.000000000000000e+00  0.000000000000000e+00
11  0.000000000000000e+00  0.000000000000000e+00  0.000000000000000e+00  0.000000000000000e+00  0.000000000000000e+00  0.000000000000000e+00
12  0.000000000000000e+00  0.000000000000000e+00  0.000000000000000e+00  0.000000000000000e+00  0.000000000000000e+00  0.000000000000000e+00
13  0.000000000000000e+00  0.000000000000000e+00  0.000000000000000e+00  0.000000000000000e+00  0.000000000000000e+00  0.000000000000000e+00
14  0.000000000000000e+00  0.000000000000000e+00  0.000000000000000e+00  0.000000000000000e+00  0.000000000000000e+00  0.000000000000000e+00
15  0.000000000000000e+00  0.000000000000000e+00  0.000000000000000e+00  0.000000000000000e+00  0.000000000000000e+00  0.000000000000000e+00
16  0.000000000000000e+00  0.000000000000000e+00  0.000000000000000e+00  0.000000000000000e+00  0.000000000000000e+00  0.000000000000000e+00
17  0.000000000000000e+00  0.000000000000000e+00  0.000000000000000e+00  0.000000000000000e+00  0.000000000000000e+00  0.000000000000000e+00
18  0.000000000000000e+00  0.000000000000000e+00  0.000000000000000e+00  0.000000000000000e+00  0.000000000000000e+00  0.000000000000000e+00
19  0.000000000000000e+00  0.000000000000000e+00  0.000000000000000e+00  0.000000000000000e+00  0.000000000000000e+00  0.000000000000000e+00
20  0.000000000000000e+00  0.000000000000000e+00  0.000000000000000e+00  0.000000000000000e+00  0.000000000000000e+00  0.000000000000000e+00
21  0.000000000000000e+00  0.000000000000000e+00  0.000000000000000e+00  0.000000000000000e+00  0.000000000000000e+00  0.000000000000000e+00
22  0.000000000000000e+00  0.000000000000000e+00  0.000000000000000e+00  0.000000000000000e+00  0.000000000000000e+00  0.000000000000000e+00
23  0.000000000000000e+00  0.000000000000000e+00  0.000000000000000e+00  0.000000000000000e+00  0.000000000000000e+00  0.000000000000000e+00
24  0.000000000000000e+00  0.000000000000000e+00  0.000000000000000e+00  0.000000000000000e+00  0.000000000000000e+00  0.000000000000000e+00
25  0.000000000000000e+00  0.000000000000000e+00  0.000000000000000e+00  0.000000000000000e+00  0.000000000000000e+00  0.000000000000000e+00
26  0.000000000000000e+00  0.000000000000000e+00  0.000000000000000e+00  0.000000000000000e+00  0.000000000000000e+00  0.000000000000000e+00
27  0.000000000000000e+00  0.000000000000000e+00  0.000000000000000e+00  0.000000000000000e+00  0.000000000000000e+00  0.000000000000000e+00
28  0.000000000000000e+00  0.000000000000000e+00  0.000000000000000e+00  0.000000000000000e+00  0.000000000000000e+00  0.000000000000000e+00
29  0.000000000000000e+00  0.000000000000000e+00  0.000000000000000e+00  0.000000000000000e+00  0.000000000000000e+00  0.000000000000000e+00
30  0.000000000000000e+00  0.000000000000000e+00  0.000000000000000e+00  0.000000000000000e+00  0.000000000000000e+00  0.000000000000000e+00
31  0.000000000000000e+00  0.000000000000000e+00  0.000000000000000e+00  0.000000000000000e+00  0.000000000000000e+00  0.000000000000000e+00
32  0.000000000000000e+00  0.000000000000000e+00  0.000000000000000e+00  0.000000000000000e+00  0.000000000000000e+00  0.000000000000000e+00
33  0.000000000000000e+00  0.000000000000000e+00  0.000000000000000e+00  0.000000000000000e+00  0.000000000000000e+00  0.000000000000000e+00
34  0.000000000000000e+00  0.000000000000000e+00  0.000000000000000e+00  0.000000000000000e+00  0.000000000000000e+00  0.000000000000000e+00
35  0.000000000000000e+00  0.000000000000000e+00  0.000000000000000e+00  0.000000000000000e+00  0.000000000000000e+00  0.000000000000000e+00
36  0.000000000000000e+00  0.000000000000000e+00  0.000000000000000e+00  0.000000000000000e+00  0.000000000000000e+00  0.000000000000000e+00
37  0.000000000000000e+00  0.000000000000000e+00  0.000000000000000e+00  0.000000000000000e+00  0.000000000000000e+00  0.000000000000000e+00
38  0.000000000000000e+00  0.000000000000000e+00  0.000000000000000e+00  0.000000000000000e+00  0.000000000000000e+00  0.000000000000000e+00
39  0.000000000000000e+00  0.000000000000000e+00  0.000000000000000e+00  0.000000000000000e+00  0.000000000000000e+00  0.000000000000000e+00
40  0.000000000000000e+00  0.000000000000000e+00  0.000000000000000e+00  0.000000000000000e+00  0.000000000000000e+00  0.000000000000000e+00
41  0.000000000000000e+00  0.000000000000000e+00  0.000000000000000e+00  0.000000000000000e+00  0.000000000000000e+00  0.000000000000000e+00
42  0.000000000000000e+00  0.000000000000000e+00  0.000000000000000e+00  0.000000000000000e+00  0.000000000000000e+00  0.000000000000000e+00
43  0.000000000000000e+00  0.000000000000000e+00  0.000000000000000e+00  0.000000000000000e+00  0.000000000000000e+00  0.000000000000000e+00
44  0.000000000000000e+00  0.000000000000000e+00  0.000000000000000e+00  0.000000000000000e+00  0.000000000000000e+00  0.000000000000000e+00
45  0.000000000000000e+00  0.000000000000000e+00  0.000000000000000e+00  0.000000000000000e+00  0.000000000000000e+00  0.000000000000000e+00
46  0.000000000000000e+00  0.000000000000000e+00  0.000000000000000e+00  0.000000000000000e+00  0.000000000000000e+00  0.000000000000000e+00
47  0.000000000000000e+00  0.000000000000000e+00  0.000000000000000e+00  0.000000000000000e+00  0.000000000000000e+00  0.000000000000000e+00
48  0.000000000000000e+00  0.000000000000000e+00  0.000000000000000e+00  0.000000000000000e+00  0.000000000000000e+00  0.000000000000000e+00
49  0.000000000000000e+00  0.000000000000000e+00  0.000000000000000e+00  0.000000000000000e+00  0.000000000000000e+00  0.000000000000000e+00
50  0.000000000000000e+00  0.000000000000000e+00  0.000000000000000e+00  0.000000000000000e+00  0.000000000000000e+00  0.000000000000000e+00
51  0.000000000000000e+00  0.000000000000000e+00  0.000000000000000e+00  0.000000000000000e+00  0.000000000000000e+00  0.000000000000000e+00
52  0.000000000000000e+00  0.000000000000000e+00  0.000000000000000e+00  0.000000000000000e+00  0.000000000000000e+00  0.000000000000000e+00
53  0.000000000000000e+00  0.000000000000000e+00  0.000000000000000e+00  0.000000000000000e+00  0.000000000000000e+00  0.000000000000000e+00
54  0.000000000000000e+00  0.000000000000000e+00  0.000000000000000e+00  0.000000000000000e+00  0.000000000000000e+00  0.000000000000000e+00
55  0.000000000000000e+00  0.000000000000000e+00  0.000000000000000e+00  0.000000000000000e+00  0.000000000000000e+00  0.000000000000000e+00
56  0.000000000000000e+00  0.000000000000000e+00  0.000000000000000e+00  0.000000000000000e+00  0.000000000000000e+00  0.000000000000000e+00
57  0.000000000000000e+00  0.000000000000000e+00  0.000000000000000e+00  0.000000000000000e+00  0.000000000000000e+00  0.000000000000000e+00
58  0.000000000000000e+00  0.000000000000000e+00  0.000000000000000e+00  0.000000000000000e+00  0.000000000000000e+00  0.000000000000000e+00
59  0.000000000000000e+00  0.000000000000000e+00  0.000000000000000e+00  0.000000000000000e+00  0.000000000000000e+00  0.000000000000000e+00
60  0.000000000000000e+00  0.000000000000000e+00  0.000000000000000e+00  0.000000000000000e+00  0.000000000000000e+00  0.000000000000000e+00
61  0.000000000000000e+00  0.000000000000000e+00  0.000000000000000e+00  0.000000000000000e+00  0.000000000000000e+00  0.000000000000000e+00
62  0.000000000000000e+00  0.000000000000000e+00  0.000000000000000e+00  0.000000000000000e+00  0.000000000000000e+00  0.000000000000000e+00
63  0.000000000000000e+00  0.000000000000000e+00  0.000000000000000e+00  0.000000000000000e+00  0.000000000000000e+00  0.000000000000000e+00
64  0.000000000000000e+00  0.000000000000000e+00  0.000000000000000e+00  0.000000000000000e+00  0.000000000000000e+00  0.000000000000000e+00
65  0.000000000000000e+00  0.000000000000000e+00  0.000000000000000e+00  0.000000000000000e+00  0.000000000000000e+00  0.000000000000000e+00
66  0.000000000000000e+00  0.000000000000000e+00  0.000000000000000e+00  0.000000000000000e+00  0.000000000000000e+00  0.000000000000000e+00
67  0.000000000000000e+00  0.000000000000000e+00  0.000000000000000e+00  0.000000000000000e+00  0.000000000000000e+00  0.000000000000000e+00
68  0.000000000000000e+00  0.000000000000000e+00  0.000000000000000e+00  0.000000000000000e+00  0.000000000000000e+00  0.000000000000000e+00
69  0.000000000000000e+00  0.000000000000000e+00  0.000000000000000e+00  0.000000000000000e+00  0.000000000000000e+00  0.000000000000000e+00
70  0.000000000000000e+00  0.000000000000000e+00  0.000000000000000e+00  0.000000000000000e+00  0.000000000000000e+00  0.000000000000000e+00
71  0.000000000000000e+00  0.000000000000000e+00  0.000000000000000e+00  0.000000000000000e+00  0.000000000000000e+00  0.000000000000000e+00
72  0.000000000000000e+00  0.000000000000000e+00  0.000000000000000e+00  0.000000000000000e+00  0.000000000000000e+00  0.000000000000000e+00
73  0.000000000000000e+00  0.000000000000000e+00  0.000000000000000e+00  0.000000000000000e+00  0.000000000000000e+00  0.000000000000000e+00
74  0.000000000000000e+00  0.000000000000000e+00  0.000000000000000e+00  0.000000000000000e+00  0.000000000000000e+00  0.000000000000000e+00
75  0.000000000000000e+00  0.000000000000000e+00  0.000000000000000e+00  0.000000000000000e+00  0.000000000000000e+00  0.000000000000000e+00
76  0.000000000000000e+00  0.000000000000000e+00  0.000000000000000e+00  0.000000000000000e+00  0.000000000000000e+00  0.000000000000000e+00
77  0.000000000000000e+00  0.000000000000000e+00  0.000000000000000e+00  0.000000000000000e+00  0.000000000000000e+00  0.000000000000000e+00
78  0.000000000000000e+00  0.000000000000000e+00  0.000000000000000e+00  0.000000000000000e+00  0.000000000000000e+00  0.000000000000000e+00
79  0.000000000000000e+00  0.000000000000000e+00  0.000000000000000e+00  0.000000000000000e+00  0.000000000000000e+00  0.000000000000000e+00
80  0.000000000000000e+00  0.000000000000000e+00  0.000000000000000e+00  0.000000000000000e+00  0.000000000000000e+00  0.000000000000000e+00
81  0.000000000000000e+00  0.000000000000000e+00  0.000000000000000e+00  0.000000000000000e+00  0.000000000000000e+00  0.000000000000000e+00
82  0.000000000000000e+00  0.000000000000000e+00  0.000000000000000e+00  0.000000000000000e+00  0.000000000000000e+00  0.000000000000000e+00
83  0.000000000000000e+00  0.000000000000000e+00  0.000000000000000e+00  0.000000000000000e+00  0.000000000000000e+00  0.000000000000000e+00
84  0.000000000000000e+00  0.000000000000000e+00  0.000000000000000e+00  0.000000000000000e+00  0.000000000000000e+00  0.000000000000000e+00
85  0.000000000000000e+00  0.000000000000000e+00  0.000000000000000e+00  0.000000000000000e+00  0.000000000000000e+00  0.000000000000000e+00
86  0.000000000000000e+00  0.000000000000000e+00  0.000000000000000e+00  0.000000000000000e+00  0.000000000000000e+00  0.000000000000000e+00
87  0.000000000000000e+00  0.000000000000000e+00  0.000000000000000e+00  0.000000000000000e+00  0.000000000000000e+00  0.000000000000000e+00
88  0.000000000000000e+00  0.000000000000000e+00  0.000000000000000e+00  0.000000000000000e+00  0.000000000000000e+00  0.000000000000000e+00
89  0.000000000000000e+00  0.000000000000000e+00  0.000000000000000e+00  0.000000000000000e+00  0.000000000000000e+00  0.000000000000000e+00
90  0.000000000000000e+00  0.000000000000000e+00  0.000000000000000e+00  0.000000000000000e+00  0.000000000000000e+00  0.000000000000000e+00
91  0.000000000000000e+00  0.000000000000000e+00  0.000000000000000e+00  0.000000000000000e+00  0.000000000000000e+00  0.000000000000000e+00
92  0.000000000000000e+00  0.000000000000000e+00  0.000000000000000e+00  0.000000000000000e+00  0.000000000000000e+00  0.000000000000000e+00
93  0.000000000000000e+00  0.000000000000000e+00  0.000000000000000e+00  0.000000000000000e+00  0.000000000000000e+00  0.000000000000000e+00
94  0.000000000000000e+00  0.000000000000000e+00  0.000000000000000e+00  0.000000000000000e+00  0.000000000000000e+00  0.000000000000000e+00
95  0.000000000000000e+00  0.000000000000000e+00  0.000000000000000e+00  0.000000000000000e+00  0.000000000000000e+00  0.000000000000000e+00
96  0.000000000000000e+00  0.000000000000000e+00  0.000000000000000e+00  0.000000000000000e+00  0.000000000000000e+00  0.000000000000000e+00
97  0.000000000000000e+00  0.000000000000000e+00  0.000000000000000e+00  0.000000000000000e+00  0.000000000000000e+00  0.000000000000000e+00
98  0.000000000000000e+00  0.000000000000000e+00  0.000000000000000e+00  0.000000000000000e+00  0.000000000000000e+00  0.000000000000000e+00
99  0.000000000000000e+00  0.000000000000000e+00  0.000000000000000e+00  0.000000000000000e+00  0.000000000000000e+00  0.000000000000000e+00
100  0.000000000000000e+00  0.000000000000000e+00  0.000000000000000e+00  0.000000000000000e+00  0.000000000000000e+00  0.000000000000000e+00
101  0.000000000000000e+00  0.000000000000000e+00  0.000000000000000e+00  0.000000000000000e+00  0.000000000000000e+00  0.000000000000000e+00
102  0.000000000000000e+00  0.000000000000000e+00  0.000000000000000e+00  0.000000000000000e+00  0.000000000000000e+00  0.000000000000000e+00
103  0.000000000000000e+00  0.000000000000000e+00  0.000000000000000e+00  0.000000000000000e+00  0.000000000000000e+00  0.000000000000000e+00
104  0.000000000000000e+00  0.000000000000000e+00  0.000000000000000e+00  0.000000000000000e+00  0.000000000000000e+00  0.000000000000000e+00
105  0.000000000000000e+00  0.000000000000000e+00  0.000000000000000e+00  0.000000000000000e+00  0.000000000000000e+00  0.000000000000000e+00
106  0.000000000000000e+00  0.000000000000000e+00  0.000000000000000e+00  0.000000000000000e+00  0.000000000000000e+00  0.000000000000000e+00
107  0.000000000000000e+00  0.000000000000000e+00  0.000000000000000e+00  0.000000000000000e+00  0.000000000000000e+00  0.000000000000000e+00
108  0.000000000000000e+00  0.000000000000000e+00  0.000000000000000e+00  0.000000000000000e+00  0.000000000000000e+00  0.000000000000000e+00
109  0.000000000000000e+00  0.000000000000000e+00  0.000000000000000e+00  0.000000000000000e+00  0.000000000000000e+00  0.000000000000000e+00
110  0.000000000000000e+00  0.000000000000000e+00  0.000000000000000e+00  0.000000000000000e+00  0.000000000000000e+00  0.000000000000000e+00
111  0.000000000000000e+00  0.000000000000000e+00  0.000000000000000e+00  0.000000000000000e+00  0.000000000000000e+00  0.000000000000000e+00
112  0.000000000000000e+00  0.000000000000000e+00  0.000000000000000e+00  0.000000000000000e+00  0.000000000000000e+00  0.000000000000000e+00
113  0.000000000000000e+00  0.000000000000000e+00  0.000000000000000e+00  0.000000000000000e+00  0.000000000000000e+00  0.000000000000000e+00
114  0.000000000000000e+00  0.000000000000000e+00  0.000000000000000e+00  0.000000000000000e+00  0.000000000000000e+00  0.000000000000000e+00
115  0.000000000000000e+00  0.000000000000000e+00  0.000000000000000e+00  0.000000000000000e+00  0.000000000000000e+00  0.000000000000000e+00
116  0.000000000000000e+00  0.000000000000000e+00  0.000000000000000e+00  0.000000000000000e+00  0.000000000000000e+00  0.000000000000000e+00
117  0.000000000000000e+00  0.000000000000000e+00  0.000000000000000e+00  0.000000000000000e+00  0.000000000000000e+00  0.000000000000000e+00
118  0.000000000000000e+00  0.000000000000000e+00  0.000000000000000e+00  0.000000000000000e+00  0.000000000000000e+00  0.000000000000000e+00
119  0.000000000000000e+00  0.000000000000000e+00  0.000000000000000e+00  0.000000000000000e+00  0.000000000000000e+00  0.000000000000000e+00
120  0.000000000000000e+00  0.000000000000000e+00  0.000000000000000e+00  0.000000000000000e+00  0.000000000000000e+00  0.000000000000000e+00
121  0.000000000000000e+00  0.000000000000000e+00  0.000000000000000e+00  0.000000000000000e+00  0.000000000000000e+00  0.000000000000000e+00
122  0.000000000000000e+00  0.000000000000000e+00  0.000000000000000e+00  0.000000000000000e+00  0.000000000000000e+00  0.000000000000000e+00
123  0.000000000000000e+00  0.000000000000000e+00  0.000000000000000e+00  0.000000000000000e+00  0.000000000000000e+00  0.000000000000000e+00
124  0.000000000000000e+00  0.000000000000000e+00  0.000000000000000e+00  0.000000000000000e+00  0.000000000000000e+00  0.000000000000000e+00
125  0.000000000000000e+00  0.000000000000000e+00  0.000000000000000e+00  0.000000000000000e+00  0.000000000000000e+00  0.000000000000000e+00
126  0.000000000000000e+00  0.000000000000000e+00  0.000000000000000e+00  0.000000000000000e+00  0.000000000000000e+00  0.000000000000000e+00

# Atom-ID, shape, quaternion
Ellipsoids

1  1.173984503142341e+00  1.173984503142341e+00  1.173984503142341e+00  9.139606097999691e-01 -4.015622889823026e-01 -4.093087677706519e-02  4.181381503311053e-02
2  1.173984503142341e+00  1.173984503142341e+00  1.173984503142341e+00  8.006860903377412e-01 -4.504382879397215e-01  1.499169491298365e-01  3.654203632273348e-01
3  1.173984503142341e+00  1.173984503142341e+00  1.173984503142341e+00  5.590852280143391e-01 -4.603723151191829e-01  3.588593844784999e-01  5.888131974231474e-01
4  1.173984503142341e+00  1.173984503142341e+00  1.173984503142341e+00  3.117430645746632e-01 -3.213051564802986e-01  4.669302151152265e-01  7.625978181985682e-01
5  1.173984503142341e+00  1.173984503142341e+00  1.173984503142341e+00  1.874473774828111e-02 -1.597013409288819e-01  5.361940242908139e-01  8.286374869791298e-01
6  1.173984503142341e+00  1.173984503142341e+00  1.173984503142341e+00 -1.532446966755293e-01 -9.561782455956461e-02  5.817210310792952e-01  7.930787707203890e-01
7  1.173984503142341e+00  1.173984503142341e+00  1.173984503142341e+00 -4.253682530866602e-01  1.164635825190652e-01  5.719391356253825e-01  6.916528814028886e-01
8  1.173984503142341e+00  1.173984503142341e+00  1.173984503142341e+00  6.258150645231522e-01 -1.738147792503393e-01 -5.091957501796275e-01 -5.646801001709245e-01
9  1.173984503142341e+00  1.173984503142341e+00  1.173984503142341e+00  7.734196596828785e-01 -4.306345573380290e-01 -3.266774919243910e-01 -3.311460769996978e-01
10  1.173984503142341e+00  1.173984503142341e+00  1.173984503142341e+00  8.771400593619445e-01 -4.192749745124520e-01 -1.782307966492218e-01 -1.518801999468378e-01