LAMMPS data file via write_data, version 2 Aug 2023, timestep = 10000000, units = lj

126 atoms
4 atom types
124 bonds
2 bond types
126 ellipsoids

-50 50 xlo xhi
-50 50 ylo yhi
-50 50 zlo zhi

Masses

1 3.1575
2 3.1575
3 3.1575
4 3.1575

Atoms # hybrid

63 2 0.2832007908709147 44.73122287944989 0.5134438129257898 1 1 3.726984996302327 0 0 0
57 1 1.2594869374944875 45.540755576331435 2.4662334392352006 1 1 3.726984996302327 0 0 0
60 3 0.26711701054113607 45.020132205453756 1.8697141769898558 1 1 3.726984996302327 0 0 0
61 3 -0.7568400035548528 45.3846051974094 0.7346877465857307 1 1 3.726984996302327 0 0 0
62 3 -0.5308832419046003 45.84494017790449 0.9139974273124386 1 1 3.726984996302327 0 0 0
55 1 1.4588309706414333 45.83324628283555 3.3692320431388816 1 1 3.726984996302327 0 0 0
56 1 1.4652681359260449 45.851181572856746 2.846999488699585 1 1 3.726984996302327 0 0 0
54 1 1.7019167760646787 45.74050077378797 3.7944071051681703 1 1 3.726984996302327 0 0 0
45 1 3.0239512950462193 46.9515560692775 5.468022718863092 1 1 3.726984996302327 0 0 0
52 3 2.6291039624018664 45.70453661937743 4.181077103762936 1 1 3.726984996302327 0 0 0
59 2 0.48202599239216454 44.903832049305365 2.4248541685237743 1 1 3.726984996302327 0 0 0
53 1 2.1755702309812697 45.71778531706896 4.150216915576275 1 1 3.726984996302327 0 0 0
58 1 0.7997799646517165 45.22345634135938 2.3378047685501353 1 1 3.726984996302327 0 0 0
51 2 3.044293190212474 45.89529361729721 4.270622590805055 1 1 3.726984996302327 0 0 0
46 1 2.939451980640704 46.82258371403745 5.281076628956687 1 1 3.726984996302327 0 0 0
50 3 3.263188997590409 45.53846125554382 4.309788916032531 1 1 3.726984996302327 0 0 0
41 3 5.032129275783047 47.51282188158852 6.4354960389863125 1 1 3.726984996302327 0 0 0
37 1 6.882865557106293 45.83740602846649 7.618269120818121 1 1 3.726984996302327 0 0 0
40 3 5.435696161478194 47.64715578996536 6.79524852297837 1 1 3.726984996302327 0 0 0
47 1 3.417165048747114 47.01447870053504 4.592875110093164 1 1 3.726984996302327 0 0 0
36 1 7.224170776824847 45.46821554250412 7.503962620555412 1 1 3.726984996302327 0 0 0
43 1 3.8349506303628327 47.73562621729215 6.155637834244582 1 1 3.726984996302327 0 0 0
39 3 5.729979104089125 46.40481695863903 7.064523619999415 1 1 3.726984996302327 0 0 0
49 2 4.11158882308568 45.71624837876295 5.357790259622928 1 1 3.726984996302327 0 0 0
42 2 4.631471862279068 48.32099355125397 6.145271413956918 1 1 3.726984996302327 0 0 0
48 1 4.2951157013119055 45.975711501354496 5.004347543256659 1 1 3.726984996302327 0 0 0
32 1 7.772034906016344 43.76522213112281 7.368455493794135 1 1 3.726984996302327 0 0 0
21 2 12.31536786596851 40.58268064927342 7.5802073656468405 1 1 3.726984996302327 0 0 0
44 1 3.639755599584276 47.42514169282701 5.799020161031563 1 1 3.726984996302327 0 0 0
34 1 7.256261297194982 44.77129796484981 7.2902598715771685 1 1 3.726984996302327 0 0 0
33 1 6.984493073379132 44.37145482405273 7.607649417849191 1 1 3.726984996302327 0 0 0
27 1 9.815641651394515 40.74852246278662 9.573045352298623 1 1 3.726984996302327 0 0 0
24 1 10.950747750291617 40.71704250251431 9.318378555678024 1 1 3.726984996302327 0 0 0
20 3 12.806102467995087 40.33589006378732 8.350379403942396 1 1 3.726984996302327 0 0 0
25 1 10.54363852401567 41.003606168209686 9.55019228809214 1 1 3.726984996302327 0 0 0
22 1 11.903312555353455 40.53726864325081 8.965645958767078 1 1 3.726984996302327 0 0 0
26 1 10.321354918727556 41.36950635530196 9.780918306977346 1 1 3.726984996302327 0 0 0
16 1 12.874641076121954 42.79335121746974 8.005281326420901 1 1 3.726984996302327 0 0 0
19 3 13.774123136316517 41.10894138649972 8.550757112672688 1 1 3.726984996302327 0 0 0
23 1 11.380343704530931 40.634816287383025 9.050661417408303 1 1 3.726984996302327 0 0 0
29 3 8.28950745167046 42.29673525542118 8.529791324298008 1 1 3.726984996302327 0 0 0
30 2 8.17523174784167 42.51885618000366 9.121828728191193 1 1 3.726984996302327 0 0 0
28 2 9.529521624862454 41.41427260691023 9.391313564098905 1 1 3.726984996302327 0 0 0
12 1 11.747582404116176 42.82487362560752 9.369912737884324 1 1 3.726984996302327 0 0 0
17 2 13.30061506239582 42.78523252428808 8.320446419281238 1 1 3.726984996302327 0 0 0
18 3 13.241876861388214 41.22547470550055 7.897488999521879 1 1 3.726984996302327 0 0 0
14 1 11.886637236492819 42.56310466600679 7.959044262882144 1 1 3.726984996302327 0 0 0
15 1 12.490432278064414 42.91171950836933 7.671250117683572 1 1 3.726984996302327 0 0 0
4 1 11.073471950827317 44.95693696763124 9.529325139331778 1 1 3.726984996302327 0 0 0
38 2 6.684245759684391 46.18829357544816 7.877540454414484 1 1 3.726984996302327 0 0 0
6 1 12.082745082249021 44.813355380032185 8.85184654549118 1 1 3.726984996302327 0 0 0
8 3 12.620852445730016 43.94456817862944 10.312153789685247 1 1 3.726984996302327 0 0 0
2 1 10.39610768623755 45.69814385887731 9.399452149741188 1 1 3.726984996302327 0 0 0
5 1 11.91962513678739 45.26579183774521 8.231214972443816 1 1 3.726984996302327 0 0 0
1 1 10.075903888415523 45.937207393412436 9.626391025103274 1 1 3.726984996302327 0 0 0
7 2 12.513885175667923 44.37416497678105 10.33110652333755 1 1 3.726984996302327 0 0 0
3 1 10.765434400461137 45.35272605592948 9.391259135066683 1 1 3.726984996302327 0 0 0
31 3 8.120830901007713 43.5956174439798 8.347521583611567 1 1 3.726984996302327 0 0 0
13 1 11.656854914974598 43.20679288136925 9.079481191498665 1 1 3.726984996302327 0 0 0
10 3 12.0731044825252 43.18664602146855 10.271847433358003 1 1 3.726984996302327 0 0 0
9 2 12.38202551273898 43.51763551472139 10.341704475345683 1 1 3.726984996302327 0 0 0
11 1 11.80435663443834 42.94457963327259 9.901407061417146 1 1 3.726984996302327 0 0 0
35 1 7.487173705618422 45.180015147544815 7.696259431590442 1 1 3.726984996302327 0 0 0
118 3 10.84886995409223 13.545902868350515 40.51527038198975 2 1 3.726984996302327 0 0 -1
120 3 10.441741569766924 12.567273801897935 40.40507722149225 2 1 3.726984996302327 0 0 -1
117 2 10.923937172753782 13.989681566537987 40.24860660016013 2 1 3.726984996302327 0 0 -1
119 2 10.718479758599845 12.861649350230895 40.64583676075653 2 1 3.726984996302327 0 0 -1
122 4 9.538221646255975 12.387326689222444 39.322795199251544 2 1 3.726984996302327 0 0 -1
121 4 9.850204152098012 12.132432308545484 39.60786826629532 2 1 3.726984996302327 0 0 -1
116 4 10.851603092027515 14.699477730704457 40.48274469620168 2 1 3.726984996302327 0 0 -1
115 4 10.491251223248295 15.68522500507617 40.467186820100686 2 1 3.726984996302327 0 0 -1
123 4 9.050458602163204 12.265831864643502 39.1615896353573 2 1 3.726984996302327 0 0 -1
124 4 8.425580978152402 11.580857137007389 38.12550576803094 2 1 3.726984996302327 0 0 -1
125 4 9.072247262636433 10.663745937485938 38.54915995471812 2 1 3.726984996302327 0 0 -1
126 4 9.60572423877288 10.646271586686396 38.39216811702695 2 1 3.726984996302327 0 0 -1
113 4 10.867895096130761 17.13508101580402 40.64388491689016 2 1 3.726984996302327 0 0 -1
110 3 10.261553648978538 18.907271659402557 40.77548598476885 2 1 3.726984996302327 0 0 -1
111 4 9.326571837544138 17.903007110230476 40.853577576049034 2 1 3.726984996302327 0 0 -1
114 4 10.688543495451121 15.665647126925657 40.4808088970255 2 1 3.726984996302327 0 0 -1
108 2 10.931619876942932 18.828574850447023 41.72763411837667 2 1 3.726984996302327 0 0 -1
107 2 11.367607333129257 18.17246819962026 41.410393430248924 2 1 3.726984996302327 0 0 -1
106 3 11.725257055026654 17.790512180867747 41.40037642806624 2 1 3.726984996302327 0 0 -1
101 4 10.037079712534716 17.40248633359286 44.256155735011085 2 1 3.726984996302327 0 0 -1
96 2 9.392682254659993 18.456170031794368 44.59974492808447 2 1 3.726984996302327 0 0 -1
98 2 9.737388877041923 18.05684065195376 45.69778315605667 2 1 3.726984996302327 0 0 -1
105 4 11.862494121323857 17.660404700019356 42.34764268981952 2 1 3.726984996302327 0 0 -1
99 3 9.789641165004083 17.734741165493002 44.42668222419283 2 1 3.726984996302327 0 0 -1
100 4 10.193772035136373 17.419133581481837 44.53610997299949 2 1 3.726984996302327 0 0 -1
97 3 9.661451006171914 18.499684919314888 45.0519841344245 2 1 3.726984996302327 0 0 -1
104 4 10.864761458531662 16.95314062643096 42.83357540546149 2 1 3.726984996302327 0 0 -1
103 4 10.120919592097371 17.170860405505167 42.93201772849508 2 1 3.726984996302327 0 0 -1
102 4 10.126142919175964 16.6470744971021 43.455926044144675 2 1 3.726984996302327 0 0 -1
95 4 8.319965297152045 18.729849348024064 43.68926165231071 2 1 3.726984996302327 0 0 -1
109 2 10.5038908967939 18.737285975757267 41.220862174501875 2 1 3.726984996302327 0 0 -1
112 4 10.204207196388232 17.52609424171107 41.19766920603299 2 1 3.726984996302327 0 0 -1
93 4 9.573005611075999 19.23708644514218 44.6270684025586 2 1 3.726984996302327 0 0 -1
94 4 9.127720504584376 20.117901555097184 43.519211133720184 2 1 3.726984996302327 0 0 -1
85 3 11.801522446646949 20.62021865829583 45.4820202438216 2 1 3.726984996302327 0 0 -1
88 2 11.67394314390473 20.73291135830127 44.98387784811662 2 1 3.726984996302327 0 0 -1
83 4 13.171002392146438 19.949492651724988 45.46902814828271 2 1 3.726984996302327 0 0 -1
84 4 12.116920885518196 19.383708717919703 45.21221077945305 2 1 3.726984996302327 0 0 -1
92 4 9.54040119571262 20.59224469749106 44.264621183646824 2 1 3.726984996302327 0 0 -1
91 4 10.350057026420178 20.210805708659958 44.28358765074121 2 1 3.726984996302327 0 0 -1
80 4 13.200135206444832 20.93720523374463 43.55820354770216 2 1 3.726984996302327 0 0 -1
89 3 10.566741369196937 20.928589177587643 45.015771927262634 2 1 3.726984996302327 0 0 -1
78 3 13.112554917752234 19.75036304638846 42.79642350456455 2 1 3.726984996302327 0 0 -1
90 4 11.11669596131362 19.712941484823517 44.94571211402375 2 1 3.726984996302327 0 0 -1
76 3 12.530354432810414 20.776268202736752 42.48816786709842 2 1 3.726984996302327 0 0 -1
79 4 13.246477368090652 19.70546882099471 43.89546555299401 2 1 3.726984996302327 0 0 -1
82 4 13.409774030804206 20.203165579704066 44.69885809161273 2 1 3.726984996302327 0 0 -1
77 2 12.637852754176025 19.69365379097168 42.811068500302696 2 1 3.726984996302327 0 0 -1
86 2 11.553937507716526 20.959227766364556 45.83509822061841 2 1 3.726984996302327 0 0 -1
74 4 12.410990441592627 21.818675395486842 42.47710645251764 2 1 3.726984996302327 0 0 -1
73 4 13.485300458867505 22.281575796081206 42.756498630914116 2 1 3.726984996302327 0 0 -1
68 3 14.18562842231917 24.284282062982374 44.23278900578642 2 1 3.726984996302327 0 0 -1
70 4 13.889059585521322 23.60034753048065 43.4777507385551 2 1 3.726984996302327 0 0 -1
65 2 12.152277976629783 25.302654318508388 44.83864990587027 2 1 3.726984996302327 0 0 -1
69 4 13.583908469593451 24.71428591704626 44.02063899430012 2 1 3.726984996302327 0 0 -1
64 3 12.371104836927552 25.814198490451588 44.39715285741043 2 1 3.726984996302327 0 0 -1
66 2 12.973366131678274 24.43110160093939 45.68758337926701 2 1 3.726984996302327 0 0 -1
67 2 13.989985965317326 24.47582617871515 45.07626863341262 2 1 3.726984996302327 0 0 -1
72 4 13.505492988517577 22.806509050509618 42.76861142276158 2 1 3.726984996302327 0 0 -1
71 4 13.778847171143589 23.295107692604155 42.699848124514624 2 1 3.726984996302327 0 0 -1
81 4 12.820666075259947 21.180538361223785 44.54188270935179 2 1 3.726984996302327 0 0 -1
87 2 11.299249634446076 21.61445809861077 45.039996287895896 2 1 3.726984996302327 0 0 -1
75 2 12.350598020184195 21.30004767162133 42.46460612367956 2 1 3.726984996302327 0 0 -1

Velocities

63 -0.20003344955955887 -0.0662563599381822 0.04177755535594504 -0.11286516318701534 0.1318499534116393 -0.3969369640690128
57 0.21552880680159012 -0.18604591477856952 0.06548048025188653 -0.19302468725570765 -0.04111679560189715 0.5098898550465558
60 -0.22095174609009868 0.5711897462070954 -0.04304112012120887 -0.4605421479641648 -0.13074698286570516 0.25307546188929864
61 0.046470561718619616 0.02333050598832734 -0.010470933499323733 0.27180148758304257 0.21849974747450532 0.2492606791582474
62 0.05206947199397255 0.3961225917727533 -0.03240250039263119 -0.10071744251669512 0.10285698479892719 -0.10943256981773598
55 -0.232314638032235 0.060323110888687914 -0.12981050265833735 -0.08245435665056425 -0.038260785751398525 0.3277251351291944
56 -0.25707334543511484 -0.005220842993698929 -0.062343567910303946 -0.14424502079825718 0.33570303634668136 0.12685037170175473
54 0.05588581239720977 0.07890478134413764 0.14160795362930384 0.07276235700638461 -0.18876474623919023 -0.09726134242830306
45 0.043149192411501704 0.28209640215986803 -0.08632487888162434 -0.007584985027346246 0.11760074082715066 -0.005511577801791101
52 0.1871798925677638 -0.15625726162322662 0.08919642779384301 0.296678334228659 0.09327089459071043 -0.3125875624870078
59 -0.3279501516817889 -0.08303483392241845 0.2154127400776212 0.18693267244860517 -0.1400779557172271 0.04020843472613159
53 0.312570872501515 -0.04604056953338194 0.00931630622695595 0.12905304731339823 -0.3286936668746835 -0.13658318808350528
58 0.06876278745767113 0.09716743695027455 0.2946702386482397 -0.20638458328445783 -0.2699123475690161 0.12960291580904082
51 0.07058060213638144 0.22919115602528678 -0.16759331467020228 0.43092095583019696 0.09134086949719986 0.02081585168243905
46 -0.029388617908044833 -0.13465647917236168 0.12248310488941229 -0.19277367358366818 -0.01997382015775564 -0.3918074063824028
50 -0.12998219797792754 -0.07019885402256204 -0.38706046955119816 0.3154665185641298 -0.17038393251800993 -0.07605450916283825
41 0.046412619892374184 0.11927866334635061 -0.051023489064848444 -0.16574173457614 -0.08279025453981195 -0.37387661532973326
37 -0.3549920488793426 -0.12408230146373585 -0.3157987180468393 -0.5674217593212272 -0.2955486514946479 -0.42175444838723036
40 -0.08590619973952174 0.02774918141750675 0.24711045944820087 -0.030943345535008708 -0.13494678888956876 0.011457458324842146
47 -0.04910520720144765 0.05947007475671388 0.31350864243322124 -0.441972773829071 -0.20148136899548344 0.20090613808955088
36 0.15664004532684372 0.3405971633911684 -0.2773962353518019 -0.11253938221351048 -0.11012527724825305 -0.14507903134910322
43 0.2827874185501692 0.09012316176816361 -0.29827951748487935 -0.22808264353219754 -0.19209568277572892 -0.15151101228929764
39 -0.19409393029222777 0.05649485005473381 -0.024032605532261123 -0.05298046230574397 0.11306402672477375 0.36763627756083433
49 -0.1486439599142512 -0.34815087567021663 -0.0014087800035895567 0.333083028981969 0.06915655191562407 -0.11078575866209737
42 0.23908555052124333 -0.014931728715459724 -0.008134322725154342 0.20566272318726445 0.22393624039864468 -0.06227686765171843
48 -0.11922411437851989 0.03338446155101167 -0.038893218225716765 0.23664529296879971 0.32750261593268504 0.07450842705374629
32 -0.08415594973253979 0.21607180579015206 0.007908321329723456 -0.2721939258446463 0.08935496617137796 -0.12875451318594172
21 -0.1162529818468539 -0.3033968066408986 0.3575162524193663 0.2558435167952093 0.30537443010594584 0.1060249693569512
44 0.30155986093743825 -0.1607249686267074 0.31729651272365744 -0.07340699941156101 -0.11945819570929724 0.03408510091172136
34 0.26315620034919057 0.04104834034606519 0.20784418390605403 0.02356090190037001 -0.07410892323616924 0.2449048514731603
33 -0.013516732998873005 0.15011991111360362 -0.22997052327193365 -0.06662562243491196 0.14893465773929446 0.392897190263423
27 0.011001991887069159 -0.4002037242374744 0.2565549818193747 -0.0618035827905769 -0.34075167389311173 0.2556647249710668
24 -0.04571303095142816 -0.07744989769043974 0.1412148332352137 -0.0224573952153033 0.1369552975173181 0.03409095894800441
20 -0.005236677049756421 -0.04376839515402266 0.18765541970683955 -0.1135492692358539 -0.374815792126849 -0.52071459619918
25 -0.08077232200199913 -0.3300072083473586 -0.44654586351645187 -0.2722202353553377 -0.05797964795596226 0.04313890547932327
22 -0.03317630150976998 0.33493220155842623 -0.08755755807439647 0.1806271130360334 -0.1296822043022797 -0.13740479382317028
26 0.05218065779399018 -0.17641809165528802 0.26359595875333336 0.5230261501761033 0.2970993809932241 -0.1508185502384837
16 0.06095233642066242 -0.49057716652570277 0.05009881221477101 0.11599714113759882 -0.1262761301158439 -0.017968468599093432
19 0.18580414491486286 -0.24204734523444899 -0.18972877532113128 0.08772051504863373 -0.20218337668365444 0.14768039191794832
23 -0.00648663661424285 -0.05718902473132435 -0.2836750888305965 -0.00541836253656877 0.08137133839329044 0.27878104104630147
29 0.24486207991784315 -0.16542058721547098 -0.13176576200756132 0.6152066486135481 0.1284324924826705 -0.21036175755576936
30 0.016615172540509524 -0.2368110597669232 0.1781003521356887 0.07751878411937606 -0.24123743109520893 0.18984067011251293
28 0.010180567638304239 -0.21649947983716836 -0.13082663120295585 -0.3049454437508991 0.12886127354677465 -0.25711692193545543
12 0.22473181409617451 0.26752396912229237 -0.3128897428522368 0.4751145471982331 -0.0025686896106800576 0.20564037773514107
17 0.03935708292731872 -0.050238043558916416 0.16566062990555777 -0.14157443579765241 -0.2800626837938492 -0.0809073028042134
18 0.39976374952188076 0.20114182644702522 0.28731799236188593 -0.3141681803756549 0.24440051889870287 0.06895228464803696
14 0.047436981425439034 -0.2091396608125909 -0.02425735000345306 -0.08908842052038184 0.30128491304106636 -0.09456675015439732
15 0.3075993108723341 -0.07378070687780472 -0.12236585112790051 0.03286143815417607 0.10109548951867162 -0.2630707283883199
4 0.009074241240652465 -0.06793049137379722 -0.10008251435198999 -0.12046603929114513 -0.041376599600279035 0.15018485440882262
38 0.04200854342187398 -0.259952540283211 0.0751092322900697 0.26928280890976375 0.03807168509526822 -0.3264468665012153
6 -0.07826882178386721 0.1669777425091752 0.12866517923730136 0.08762730477149924 -0.21031458774334133 -0.29779686413986556
8 0.13450712628148806 0.14301847371299317 -0.17158369022450123 -0.5664249773606557 -0.11596686652623348 -0.22397043485476256
2 -0.3951563257617302 0.21087073856600608 -0.043799320833276735 0.4753705868520761 0.282668409262 0.2657765079184727
5 -0.2019418199452615 -0.012926258846074476 -0.28029297279422616 0.17695881985835257 -0.17367482661902198 -0.0910056351380636
1 -0.3896364268585044 -0.19017071049568351 0.4124542096254795 -0.3557073620902083 -0.07850063243932684 0.07579721390937182
7 -0.02007771287874151 0.03506340475790852 -0.24114090963628787 -0.004911375043646585 0.03076963633361526 0.24111224073497795
3 -0.37950701794566266 0.21664977429728707 0.005793926911511398 0.1952703075632618 -0.31664857631069226 0.006107178238674939
31 0.31273397935063696 0.2240914391010713 -0.13538538465396868 0.13757369255596869 -0.12275434045230718 0.31094234205819227
13 0.26734362861166666 -0.05119440980945783 -0.24547607305067612 0.17844624964822367 -0.21372900663197456 0.19030313612575256
10 0.10649668326447628 -0.20224415688837166 -0.25765653787258724 -0.047039780042887794 0.008006227597855905 0.15565106789187483
9 0.060123731353956225 -0.283826784157911 -0.13194346506593732 -0.2556588447561962 0.008467370831393695 0.2601021890685198
11 0.594880808276188 0.3167694198549787 -0.01595494189248889 0.2467310167150879 0.16854035628034214 0.762492934765935
35 -0.3571667665844233 0.012238807301077305 -0.1756908711977181 -0.13760897256157603 0.01581974790021733 -0.25265967364361047
118 0.01633365297730847 -0.057030253550960995 0.02014862805311264 0.06752081616387128 0.07575190541614454 -0.6501124143998435
120 -0.08121681565221256 0.2531491372730571 -0.25853413036432826 0.11132227518452537 0.020189890189866562 0.16809468424337734
117 0.07565217245979565 -0.09039031365324791 -0.10535023730544808 -0.16482180797684576 0.06229056735369148 -0.10527580744387924
119 -0.06584048533096132 -0.053393943355035695 0.11281449142697948 -0.23539279286811593 -0.006982449722488196 -0.08582807851491353
122 -0.15187559391404262 0.0711641215894229 -0.0037705564119124065 -0.1812992305038022 -0.18246748184838119 -0.24828981158817312
121 -0.16856421846864914 -0.12987603677370305 0.08722045009396673 -0.4838193297114656 0.25691221287158456 0.05510415643241225
116 -0.24516331340668535 -0.20446245706588562 -0.32094669329673453 0.3092288544676609 -0.02772133180474725 0.07937791834684145
115 -0.09948272149059678 -0.14396719749679518 0.04716947419132386 0.06891013992685684 -0.06695248496399643 -0.36163953442183366
123 0.05448643523188881 0.2254550493926408 -0.05366095704938664 -0.14891738647191932 -0.10487104349423612 0.07070732102725116
124 0.02613592657620673 -0.19970796686621056 0.1556781951712461 -0.22990495022561067 -0.4181840051652656 0.04423509828020014
125 0.1777546892583704 -0.11968135075089623 -0.003060431352813118 0.20898495671083928 0.1744534617387897 -0.0053164635992934296
126 -0.07631278933381544 -0.1796312382238692 -0.021892025142008213 -0.2533012596570541 0.3059113421352876 -0.2546295056805346
113 -0.07313837971136161 -0.060965971377118754 0.27094641429190186 -0.2789538241889018 -0.06065422643568201 0.021560832758509476
110 -0.17380343141888882 -0.2485790550734786 -0.16216776310124523 -0.20730804339797218 -0.07471602104457697 -0.04459193470991962
111 -0.03494717061548361 0.10611652267073736 0.1558487902258805 -0.09310444916576174 -0.2822431971294179 0.06802732824477703
114 -0.037596942120813034 0.06077036877050391 -0.23650636861411864 -0.27902869106956585 -0.0699660358007397 -0.06392293278117589
108 0.14385269770511386 -0.08043995521334074 -0.0992258527581013 -0.08975323867161172 0.1945325140037805 0.0007822788546828973
107 -0.06193734317441114 -0.04571741054263277 -0.18291518092141854 0.08576932401419934 -0.2779625334138656 -0.1987190098103236
106 0.04244807846656823 -0.021253464830668544 0.45197341327325335 -0.0042422398350117334 0.38741184609664386 -0.12790480098524212
101 0.0075446944923827156 -0.166639086448806 0.03794231361316812 0.004196483778489161 -0.20781608906441387 0.14208399135729444
96 -0.21789923680444806 -0.34802315254527816 0.3001744916894751 0.03792529057465212 -0.3079435981687245 0.21759721431108156
98 -0.22024024895059932 0.20692755243767558 -0.14201231393504274 0.038955369562584115 0.21270073327154046 -0.011566014265181201
105 0.18703278061711773 -0.18001782211045836 -0.335342705901725 0.22466750951642817 -0.135314385069731 -0.22007442727445334
99 0.11941953346992129 0.5624604248984223 -0.08860142271529614 0.12736757840726096 0.15167805786358657 0.36775262414595006
100 -0.12015465945110544 0.17331460837306267 -0.3290156145978582 0.4163020351030867 0.23512592710030206 0.3577860971391845
97 0.18844607425727852 -0.03843998466655383 0.2652983762783976 -0.011441085981617511 -0.17677953407564231 0.04576680287104685
104 -0.06079874123554117 0.15354641305181135 0.09125512431005398 0.10527864571720276 -0.25752628556167406 -0.028136793228041225
103 0.16798546341708634 -0.3125364266024867 -0.46354673258805196 0.3475334723153648 -0.06357476452274259 -0.6165199605228537
102 -0.12832815369890221 -0.041431624434722744 0.18845780071305926 0.5283826152966102 -0.06961463135620992 0.12376921556326004
95 0.1226422768363598 0.02073162268065145 -0.020073985161165455 0.45491681607411905 -0.2333771413397761 0.18217374350145432
109 -0.3604178940686067 0.15666297616924604 -0.2987539188866649 -0.03675705352596143 0.05349296300431011 0.09475250445575058
112 -0.2431236829970848 0.15970143161795297 0.16523649771410012 -0.11038994163671778 0.019167116680910253 0.05012922815759943
93 -0.22033799332166024 0.15806113644917708 0.26930182000947717 0.2823474679781861 -0.3614544679432158 -0.05027120362810988
94 -0.015813673492982516 0.011791841342732463 0.1666623201735674 -0.23810904012238876 0.4458379242942587 0.04143121752102118
85 0.09715095062400741 -0.03809989477436193 -0.03674632285740175 -0.3487188199737734 -0.2673893516334565 -0.058589048164738984
88 0.022870517826985442 0.04769134969337721 0.24808015334771416 0.24865506255337733 -0.15733402683616726 0.21499330850880066
83 -0.5025069483527466 0.03211579023120626 0.16528844279892146 0.11245642475566185 0.33959090694303157 -0.3139719500798643
84 -0.318894706814138 -0.1334372997882594 0.26368694548435284 0.10194707892265518 0.08556529094448068 0.02246356274868082
92 0.18986538183732674 0.3636248368326802 0.3162418402896698 -0.3926938988936298 -0.13687396950016337 0.22092820323579113
91 0.47817052862900905 0.01621915443040779 0.10607558448837293 0.043544488893879296 0.07202704511272562 -0.013386572039208455
80 0.13198967144324067 -0.24290338621716556 -0.45850115243567974 -0.08736917725122752 0.11123048149594819 0.23848232335853814
89 -0.19932474704151704 -0.3210770027040962 -0.060531244370907664 -0.3829024809957444 -0.2002327923844416 -0.3590914774393706
78 0.0738794288638443 -0.2624168144155008 0.4271072516946468 -0.20684958949199575 0.019238281200286898 -0.1776892908256
90 -0.036088187800348503 -0.0840057436119088 -0.2049067945458735 0.5034826222711133 -0.3099530893880446 0.09266765753921491
76 0.07949504523910622 0.0386189497499217 0.3149081688035157 -0.10038408751517637 0.4583958019944666 -0.04165492189297346
79 -0.10254474772082396 0.19160889359426603 0.028405242995245623 -0.12033561280991262 -0.0735003120045078 -0.34084610627243317
82 0.024251840284017803 0.14543255074683564 -0.4240105046811126 -0.42497752708800246 0.0014854425398957843 0.06686401600816183
77 0.22092120656471753 -0.23662423239008623 -0.24237079572381068 -0.014698172593923543 0.14197500902627416 0.0999311718241401
86 -0.3378040272780455 0.34950540634588273 -0.2531285028252041 0.5258010170410675 -0.06507215441265601 0.3703948362692931
74 -0.23619286524151828 0.16608139574115482 0.057422846452146466 0.2129636867763454 -0.10647827720405481 0.34344344652532627
73 0.23253435774517658 0.1471145048211675 -0.12449855530851647 -0.10508547863471115 -0.03798260554773188 -0.36076165623199197
68 -0.014480926527695148 0.09617050544561206 0.1493918689618891 -0.23644365853516514 -0.07041114060658735 0.06173124659348011
70 0.14518656617837425 -0.16805378113184613 -0.17855430767141725 0.11391704154045745 0.1199960492355249 -0.18643391855043892
65 0.14658196160610523 -0.09554826744333693 0.24232003819778145 0.35711927506098123 -0.08472744539560803 -0.017127578113778713
69 0.031684778339416145 -0.19909631427079014 -0.21443780596244344 -0.31459683511552816 -0.07702732209691092 0.1915796686324405
64 -0.08433007563064852 -0.1830821334946667 -0.11132294166185751 -0.1713182493953298 0.059104891536899976 -0.31250417511857176
66 0.21628084282465915 -0.14314662455929167 -0.4413213314425711 -0.19854694624229635 -0.11625936098722311 -0.12661896610251577
67 -0.02706464621345741 -0.06817649791556869 0.10423508360871904 0.4976703710980501 0.0057672026395363465 0.08590861803737745
72 0.10137472501093527 -0.03052510052010427 0.30964354165033714 0.01184695266624594 -0.3915744907312706 -0.08352081736060563
71 -0.13985722933871747 -0.17028975967824042 0.3586541948184314 0.12904664379078948 -0.2743926926432228 -0.22553074888400387
81 -0.0972268427957736 -0.17397963351046414 -0.01049333125853409 0.16763426864233666 -0.3307146165725941 0.03885883419284829
87 0.0680821343764909 -0.26284046124739097 -0.17273082304780044 -0.16224197307039692 -0.32718885558267496 -0.04435188769821894
75 0.45241925094329233 -0.03037726051744645 0.0919365388783977 0.27411692508618446 0.14454660968883729 -0.14817919381915307

Bonds

1 1 57 58
2 1 60 61
3 1 61 62
4 1 62 63
5 1 55 56
6 1 56 57
7 1 54 55
8 1 45 46
9 1 52 53
10 1 59 60
11 1 53 54
12 1 58 59
13 1 51 52
14 1 46 47
15 1 50 51
16 1 41 42
17 1 37 38
18 1 40 41
19 1 47 48
20 1 36 37
21 1 43 44
22 1 39 40
23 1 49 50
24 1 42 43
25 1 48 49
26 1 32 33
27 1 21 22
28 1 44 45
29 1 34 35
30 1 33 34
31 1 27 28
32 1 24 25
33 1 20 21
34 1 25 26
35 1 22 23
36 1 26 27
37 1 16 17
38 1 19 20
39 1 23 24
40 1 29 30
41 1 30 31
42 1 28 29
43 1 12 13
44 1 17 18
45 1 18 19
46 1 14 15
47 1 15 16
48 1 4 5
49 1 38 39
50 1 6 7
51 1 8 9
52 1 2 3
53 1 5 6
54 1 1 2
55 1 7 8
56 1 3 4
57 1 31 32
58 1 13 14
59 1 10 11
60 1 9 10
61 1 11 12
62 1 35 36
63 1 118 119
64 1 120 121
65 1 117 118
66 1 119 120
67 1 122 123
68 1 121 122
69 1 116 117
70 1 115 116
71 1 123 124
72 1 124 125
73 1 125 126
74 1 113 114
75 1 110 111
76 1 111 112
77 1 114 115
78 1 108 109
79 1 107 108
80 1 106 107
81 1 101 102
82 1 96 97
83 1 98 99
84 1 105 106
85 1 99 100
86 1 100 101
87 1 97 98
88 1 104 105
89 1 103 104
90 1 102 103
91 1 95 96
92 1 109 110
93 1 112 113
94 1 93 94
95 1 94 95
96 1 85 86
97 1 88 89
98 1 83 84
99 1 84 85
100 1 92 93
101 1 91 92
102 1 80 81
103 1 89 90
104 1 78 79
105 1 90 91
106 1 76 77
107 1 79 80
108 1 82 83
109 1 77 78
110 1 86 87
111 1 74 75
112 1 73 74
113 1 68 69
114 1 70 71
115 1 65 66
116 1 69 70
117 1 64 65
118 1 66 67
119 1 67 68
120 1 72 73
121 1 71 72
122 1 81 82
123 1 87 88
124 1 75 76

Ellipsoids

63 1.173984503142341 1.173984503142341 1.173984503142341 -0.18663969313397752 -0.44139613157712243 0.8219422239718952 0.30780848011018375
57 1.173984503142341 1.173984503142341 1.173984503142341 0.5216265699797462 0.20806354388720671 -0.8270496463509833 -0.024579781670607585
60 1.173984503142341 1.173984503142341 1.173984503142341 -0.4706349687954246 -0.3029520322031967 0.6913311815880266 -0.4569288672156594
61 1.173984503142341 1.173984503142341 1.173984503142341 -0.05488775602243208 -0.07824088895943093 -0.34952294235019243 -0.9320404552939343
62 1.173984503142341 1.173984503142341 1.173984503142341 -0.2934119777978413 0.20812518756718806 0.20069999081093162 0.9112150302060288
55 1.173984503142341 1.173984503142341 1.173984503142341 0.25430404364229864 0.888553857018178 -0.3136552109612715 -0.21776571172279463
56 1.173984503142341 1.173984503142341 1.173984503142341 0.394406508189744 0.6192317322795439 -0.6628834823819811 -0.1469049244266044
54 1.173984503142341 1.173984503142341 1.173984503142341 -0.1784557812716849 -0.9282276777581453 -0.07992034034904809 0.3164800966457852
45 1.173984503142341 1.173984503142341 1.173984503142341 -0.5659474885600295 0.03646395871825851 0.14985910549130177 0.8098864540221276