# LAMMPS data file
126 atoms
126 ellipsoids
124 bonds

4 atom types
2 bond types

# System size
-50.000000 50.000000 xlo xhi
-50.000000 50.000000 ylo yhi
-50.000000 50.000000 zlo zhi

Masses

1 3.1575
2 3.1575
3 3.1575
4 3.1575

# Atom-ID, type, position, molecule-ID, ellipsoid flag, density
Atoms

1 1 -4.382941722869873e+00 -3.114074707031250e+00 -1.093487358093262e+01 1 1 1
2 1 -4.412346363067627e+00 -2.982879638671875e+00 -1.048104286193848e+01 1 1 1
3 1 -4.534293651580811e+00 -2.991851806640625e+00 -1.001856040954590e+01 1 1 1
4 1 -4.533620357513428e+00 -3.175262451171875e+00 -9.524030685424805e+00 1 1 1
5 1 -4.257845401763916e+00 -3.280517578125000e+00 -9.040418624877930e+00 1 1 1
6 1 -3.839122295379639e+00 -3.401062011718750e+00 -8.777387619018555e+00 1 1 1
7 2 -3.472252368927002e+00 -3.250091552734375e+00 -8.518350601196289e+00 1 1 1
8 3 -3.041644573211670e+00 -2.984283447265625e+00 -8.360342025756836e+00 1 1 1
9 2 -2.783398151397705e+00 -2.555572509765625e+00 -8.232599258422852e+00 1 1 1
10 3 -2.685246944427490e+00 -2.039642333984375e+00 -7.942312240600586e+00 1 1 1
11 1 -2.716910839080811e+00 -1.604553222656250e+00 -7.609853744506836e+00 1 1 1
12 1 -2.916521549224854e+00 -1.352874755859375e+00 -7.193250656127930e+00 1 1 1
13 1 -3.222432613372803e+00 -1.335327148437500e+00 -6.786741256713867e+00 1 1 1
14 1 -3.378871440887451e+00 -1.284942626953125e+00 -6.247121810913086e+00 1 1 1
15 1 -3.428226947784424e+00 -1.474792480468750e+00 -5.747278213500977e+00 1 1 1
16 1 -3.288495540618896e+00 -1.694519042968750e+00 -5.289896011352539e+00 1 1 1
17 2 -2.935375690460205e+00 -1.816558837890625e+00 -4.943483352661133e+00 1 1 1
18 3 -2.413358211517334e+00 -1.797943115234375e+00 -4.656255722045898e+00 1 1 1
19 3 -1.952147960662842e+00 -1.589019775390625e+00 -4.486143112182617e+00 1 1 1
20 3 -1.544432163238525e+00 -1.266021728515625e+00 -4.316122055053711e+00 1 1 1
21 2 -1.472287654876709e+00 -7.316284179687500e-01 -4.150976181030273e+00 1 1 1
22 1 -1.414843082427979e+00 -4.197998046875000e-01 -3.678888320922852e+00 1 1 1
23 1 -1.523920536041260e+00 -2.145385742187500e-01 -3.257268905639648e+00 1 1 1
24 1 -1.611305713653564e+00 -2.255249023437500e-01 -2.766695022583008e+00 1 1 1
25 1 -1.564377307891846e+00 -3.547973632812500e-01 -2.206026077270508e+00 1 1 1
26 1 -1.305890560150146e+00 -5.408630371093750e-01 -1.782651782035828e+00 1 1 1
27 1 -8.514952659606934e-01 -6.997375488281250e-01 -1.407537341117859e+00 1 1 1
28 2 -3.847212791442871e-01 -7.061767578125000e-01 -1.204187273979187e+00 1 1 1
29 3  1.284108161926270e-01 -5.523071289062500e-01 -1.172799944877625e+00 1 1 1
30 2  4.854569435119629e-01 -2.566833496093750e-01 -1.083146929740906e+00 1 1 1
31 3  6.477341651916504e-01  2.003784179687500e-01 -8.841723203659058e-01 1 1 1
32 1  6.672043800354004e-01  6.567077636718750e-01 -5.778330564498901e-01 1 1 1
33 1  7.129082679748535e-01  1.028656005859375e+00 -1.788310110569000e-01 1 1 1
34 1  6.053013801574707e-01  1.193084716796875e+00  3.358250558376312e-01 1 1 1
35 1  5.695443153381348e-01  1.108428955078125e+00  8.070660829544067e-01 1 1 1
36 1  6.487889289855957e-01  8.244628906250000e-01  1.271127820014954e+00 1 1 1
37 1  1.003042697906494e+00  5.972290039062500e-01  1.644380688667297e+00 1 1 1
38 2  1.578081607818604e+00  4.816894531250000e-01  1.823873639106750e+00 1 1 1
39 3  1.996475696563721e+00  5.538940429687500e-01  2.038347244262695e+00 1 1 1
40 3  2.363790988922119e+00  8.155212402343750e-01  2.177469253540039e+00 1 1 1
41 3  2.653294086456299e+00  1.131103515625000e+00  2.537439346313477e+00 1 1 1
42 2  2.841747760772705e+00  1.480926513671875e+00  3.009237289428711e+00 1 1 1
43 1  2.842508792877197e+00  1.813385009765625e+00  3.346773147583008e+00 1 1 1
44 1  2.485220432281494e+00  1.916168212890625e+00  3.754613876342773e+00 1 1 1
45 1  2.285957813262939e+00  1.891540527343750e+00  4.211462020874023e+00 1 1 1
46 1  2.086712360382080e+00  1.620727539062500e+00  4.659109115600586e+00 1 1 1
47 1  2.157873630523682e+00  1.475067138671875e+00  5.146257400512695e+00 1 1 1
48 1  2.433392047882080e+00  1.333099365234375e+00  5.582582473754883e+00 1 1 1
49 2  2.752560138702393e+00  1.355072021484375e+00  6.000272750854492e+00 1 1 1
50 3  3.004095554351807e+00  1.489349365234375e+00  6.416826248168945e+00 1 1 1
51 2  3.261173725128174e+00  1.816406250000000e+00  6.770933151245117e+00 1 1 1
52 3  3.213415622711182e+00  2.321777343750000e+00  7.065412521362305e+00 1 1 1
53 1  2.981697559356689e+00  2.699035644531250e+00  7.417657852172852e+00 1 1 1
54 1  2.607176303863525e+00  2.863464355468750e+00  7.828546524047852e+00 1 1 1
55 1  2.267351627349854e+00  2.749237060546875e+00  8.297479629516602e+00 1 1 1
56 1  2.126858234405518e+00  2.390075683593750e+00  8.712377548217773e+00 1 1 1
57 1  2.177221775054932e+00  1.888427734375000e+00  9.053300857543945e+00 1 1 1
58 1  2.547548770904541e+00  1.535827636718750e+00  9.343011856079102e+00 1 1 1
59 2  2.913069248199463e+00  1.329437255859375e+00  9.713647842407227e+00 1 1 1
60 3  3.351900577545166e+00  1.401550292968750e+00  1.011207389831543e+01 1 1 1
61 3  3.652121067047119e+00  1.664337158203125e+00  1.047986030578613e+01 1 1 1
62 3  3.708748340606689e+00  1.927459716796875e+00  1.096290779113770e+01 1 1 1
63 2  3.550507068634033e+00  2.123199462890625e+00  1.136644935607910e+01 1 1 1
64 3  2.857634067535400e+00  1.263610839843750e+00  1.143754768371582e+01 2 1 1
65 2  2.595667362213135e+00  1.551025390625000e+00  1.109040260314941e+01 2 1 1
66 2  2.566017627716064e+00  1.965454101562500e+00  1.076528358459473e+01 2 1 1
67 2  2.635931491851807e+00  2.282714843750000e+00  1.039027976989746e+01 2 1 1
68 3  2.858719348907471e+00  2.538085937500000e+00  9.975999832153320e+00 2 1 1
69 4  3.094290256500244e+00  2.547332763671875e+00  9.594968795776367e+00 2 1 1
70 4  3.253836154937744e+00  2.396270751953125e+00  9.105825424194336e+00 2 1 1
71 4  3.268980503082275e+00  2.040924072265625e+00  8.752153396606445e+00 2 1 1
72 4  3.108290195465088e+00  1.866027832031250e+00  8.270471572875977e+00 2 1 1
73 4  2.824059009552002e+00  1.685974121093750e+00  7.875249862670898e+00 2 1 1
74 4  2.320469379425049e+00  1.753540039062500e+00  7.564260482788086e+00 2 1 1
75 2  2.070358753204346e+00  1.905456542968750e+00  7.124567031860352e+00 2 1 1
76 3  2.122559070587158e+00  2.225006103515625e+00  6.699800491333008e+00 2 1 1
77 2  2.272127628326416e+00  2.447875976562500e+00  6.183141708374023e+00 2 1 1
78 3  2.641132831573486e+00  2.524414062500000e+00  5.738748550415039e+00 2 1 1
79 4  2.993248462677002e+00  2.344940185546875e+00  5.385084152221680e+00 2 1 1
80 4  3.212278842926025e+00  1.945800781250000e+00  5.103399276733398e+00 2 1 1
81 4  3.234940052032471e+00  1.522308349609375e+00  4.694753646850586e+00 2 1 1
82 4  3.120148181915283e+00  1.097106933593750e+00  4.435300827026367e+00 2 1 1
83 4  2.797661304473877e+00  8.132629394531250e-01  4.099237442016602e+00 2 1 1
84 4  2.372116565704346e+00  7.142944335937500e-01  3.752305984497070e+00 2 1 1
85 3  1.958233356475830e+00  8.378906250000000e-01  3.471929550170898e+00 2 1 1
86 2  1.636244297027588e+00  1.054870605468750e+00  3.189081192016602e+00 2 1 1
87 2  1.511023044586182e+00  1.388824462890625e+00  2.761320114135742e+00 2 1 1
88 2  1.539625644683838e+00  1.625091552734375e+00  2.248125076293945e+00 2 1 1
89 3  1.629330158233643e+00  1.637908935546875e+00  1.666696667671204e+00 2 1 1
90 4  1.768471240997314e+00  1.384613037109375e+00  1.249521374702454e+00 2 1 1
91 4  1.747793674468994e+00  9.822387695312500e-01  8.309537172317505e-01 2 1 1
92 4  1.519119739532471e+00  4.929809570312500e-01  5.847340822219849e-01 2 1 1
93 4  1.095671176910400e+00  1.173706054687500e-01  5.015622377395630e-01 2 1 1
94 4  5.848240852355957e-01 -6.411743164062500e-02  3.365193307399750e-01 2 1 1
95 4  1.635518074035645e-01 -6.677246093750000e-02  1.723271310329437e-01 2 1 1
96 2 -2.641091346740723e-01  1.157226562500000e-01 -1.479052603244781e-01 2 1 1
97 3 -4.133810997009277e-01  3.319702148437500e-01 -5.781382322311401e-01 2 1 1
98 2 -4.471993446350098e-01  5.441589355468750e-01 -1.162309527397156e+00 2 1 1
99 3 -2.563719749450684e-01  4.045104980468750e-01 -1.683717608451843e+00 2 1 1
100 4 -3.676142692565918e-01  1.348266601562500e-01 -2.206815719604492e+00 2 1 1
101 4 -3.633017539978027e-01 -2.911987304687500e-01 -2.495256423950195e+00 2 1 1
102 4 -5.397677421569824e-01 -7.750244140625000e-01 -2.682882308959961e+00 2 1 1
103 4 -8.853869438171387e-01 -1.132629394531250e+00 -2.812547683715820e+00 2 1 1
104 4 -1.320987224578857e+00 -1.359405517578125e+00 -3.007471084594727e+00 2 1 1
105 4 -1.886498928070068e+00 -1.334167480468750e+00 -3.126554489135742e+00 2 1 1
106 3 -2.335568904876709e+00 -1.123992919921875e+00 -3.401411056518555e+00 2 1 1
107 2 -2.601212978363037e+00 -9.768066406250000e-01 -3.841688156127930e+00 2 1 1
108 2 -2.696617603302002e+00 -6.990051269531250e-01 -4.217290878295898e+00 2 1 1
109 2 -2.584301471710205e+00 -6.269226074218750e-01 -4.752271652221680e+00 2 1 1
110 3 -2.522119998931885e+00 -7.452087402343750e-01 -5.251012802124023e+00 2 1 1
111 4 -2.347194194793701e+00 -1.040252685546875e+00 -5.649671554565430e+00 2 1 1
112 4 -2.215765476226807e+00 -1.494873046875000e+00 -5.963182449340820e+00 2 1 1
113 4 -2.359413623809814e+00 -1.979003906250000e+00 -6.163984298706055e+00 2 1 1
114 4 -2.717209339141846e+00 -2.287353515625000e+00 -6.301542282104492e+00 2 1 1
115 4 -2.924391269683838e+00 -2.472412109375000e+00 -6.780893325805664e+00 2 1 1
116 4 -3.376239299774170e+00 -2.442291259765625e+00 -6.995862960815430e+00 2 1 1
117 2 -3.718093395233154e+00 -2.325103759765625e+00 -7.451585769653320e+00 2 1 1
118 3 -3.850344181060791e+00 -2.137207031250000e+00 -7.873514175415039e+00 2 1 1
119 2 -3.893198490142822e+00 -2.085021972656250e+00 -8.477998733520508e+00 2 1 1
120 3 -3.750377178192139e+00 -2.234558105468750e+00 -9.017641067504883e+00 2 1 1
121 4 -3.500675678253174e+00 -2.460296630859375e+00 -9.410242080688477e+00 2 1 1
122 4 -3.318366527557373e+00 -2.888214111328125e+00 -9.752130508422852e+00 2 1 1
123 4 -3.400902271270752e+00 -3.422241210937500e+00 -9.883016586303711e+00 2 1 1
124 4 -3.711135387420654e+00 -3.842010498046875e+00 -1.008803749084473e+01 2 1 1
125 4 -4.093790531158447e+00 -4.134307861328125e+00 -1.028809928894043e+01 2 1 1
126 4 -4.513892650604248e+00 -4.247131347656250e+00 -1.036857032775879e+01 2 1 1

# Atom-ID, translational, rotational velocity
Velocities

1  0.000000000000000e+00  0.000000000000000e+00  0.000000000000000e+00  0.000000000000000e+00  0.000000000000000e+00  0.000000000000000e+00
2  0.000000000000000e+00  0.000000000000000e+00  0.000000000000000e+00  0.000000000000000e+00  0.000000000000000e+00  0.000000000000000e+00
3  0.000000000000000e+00  0.000000000000000e+00  0.000000000000000e+00  0.000000000000000e+00  0.000000000000000e+00  0.000000000000000e+00
4  0.000000000000000e+00  0.000000000000000e+00  0.000000000000000e+00  0.000000000000000e+00  0.000000000000000e+00  0.000000000000000e+00
5  0.000000000000000e+00  0.000000000000000e+00  0.000000000000000e+00  0.000000000000000e+00  0.000000000000000e+00  0.000000000000000e+00
6  0.000000000000000e+00  0.000000000000000e+00  0.000000000000000e+00  0.000000000000000e+00  0.000000000000000e+00  0.000000000000000e+00
7  0.000000000000000e+00  0.000000000000000e+00  0.000000000000000e+00  0.000000000000000e+00  0.000000000000000e+00  0.000000000000000e+00
8  0.000000000000000e+00  0.000000000000000e+00  0.000000000000000e+00  0.000000000000000e+00  0.000000000000000e+00  0.000000000000000e+00
9  0.000000000000000e+00  0.000000000000000e+00  0.000000000000000e+00  0.000000000000000e+00  0.000000000000000e+00  0.000000000000000e+00
10  0.000000000000000e+00  0.000000000000000e+00  0.000000000000000e+00  0.000000000000000e+00  0.000000000000000e+00  0.000000000000000e+00
11  0.000000000000000e+00  0.000000000000000e+00  0.000000000000000e+00  0.000000000000000e+00  0.000000000000000e+00  0.000000000000000e+00
12  0.000000000000000e+00  0.000000000000000e+00  0.000000000000000e+00  0.000000000000000e+00  0.000000000000000e+00  0.000000000000000e+00
13  0.000000000000000e+00  0.000000000000000e+00  0.000000000000000e+00  0.000000000000000e+00  0.000000000000000e+00  0.000000000000000e+00
14  0.000000000000000e+00  0.000000000000000e+00  0.000000000000000e+00  0.000000000000000e+00  0.000000000000000e+00  0.000000000000000e+00
15  0.000000000000000e+00  0.000000000000000e+00  0.000000000000000e+00  0.000000000000000e+00  0.000000000000000e+00  0.000000000000000e+00
16  0.000000000000000e+00  0.000000000000000e+00  0.000000000000000e+00  0.000000000000000e+00  0.000000000000000e+00  0.000000000000000e+00
17  0.000000000000000e+00  0.000000000000000e+00  0.000000000000000e+00  0.000000000000000e+00  0.000000000000000e+00  0.000000000000000e+00
18  0.000000000000000e+00  0.000000000000000e+00  0.000000000000000e+00  0.000000000000000e+00  0.000000000000000e+00  0.000000000000000e+00
19  0.000000000000000e+00  0.000000000000000e+00  0.000000000000000e+00  0.000000000000000e+00  0.000000000000000e+00  0.000000000000000e+00
20  0.000000000000000e+00  0.000000000000000e+00  0.000000000000000e+00  0.000000000000000e+00  0.000000000000000e+00  0.000000000000000e+00
21  0.000000000000000e+00  0.000000000000000e+00  0.000000000000000e+00  0.000000000000000e+00  0.000000000000000e+00  0.000000000000000e+00
22  0.000000000000000e+00  0.000000000000000e+00  0.000000000000000e+00  0.000000000000000e+00  0.000000000000000e+00  0.000000000000000e+00
23  0.000000000000000e+00  0.000000000000000e+00  0.000000000000000e+00  0.000000000000000e+00  0.000000000000000e+00  0.000000000000000e+00
24  0.000000000000000e+00  0.000000000000000e+00  0.000000000000000e+00  0.000000000000000e+00  0.000000000000000e+00  0.000000000000000e+00
25  0.000000000000000e+00  0.000000000000000e+00  0.000000000000000e+00  0.000000000000000e+00  0.000000000000000e+00  0.000000000000000e+00
26  0.000000000000000e+00  0.000000000000000e+00  0.000000000000000e+00  0.000000000000000e+00  0.000000000000000e+00  0.000000000000000e+00
27  0.000000000000000e+00  0.000000000000000e+00  0.000000000000000e+00  0.000000000000000e+00  0.000000000000000e+00  0.000000000000000e+00
28  0.000000000000000e+00  0.000000000000000e+00  0.000000000000000e+00  0.000000000000000e+00  0.000000000000000e+00  0.000000000000000e+00
29  0.000000000000000e+00  0.000000000000000e+00  0.000000000000000e+00  0.000000000000000e+00  0.000000000000000e+00  0.000000000000000e+00
30  0.000000000000000e+00  0.000000000000000e+00  0.000000000000000e+00  0.000000000000000e+00  0.000000000000000e+00  0.000000000000000e+00
31  0.000000000000000e+00  0.000000000000000e+00  0.000000000000000e+00  0.000000000000000e+00  0.000000000000000e+00  0.000000000000000e+00
32  0.000000000000000e+00  0.000000000000000e+00  0.000000000000000e+00  0.000000000000000e+00  0.000000000000000e+00  0.000000000000000e+00
33  0.000000000000000e+00  0.000000000000000e+00  0.000000000000000e+00  0.000000000000000e+00  0.000000000000000e+00  0.000000000000000e+00
34  0.000000000000000e+00  0.000000000000000e+00  0.000000000000000e+00  0.000000000000000e+00  0.000000000000000e+00  0.000000000000000e+00
35  0.000000000000000e+00  0.000000000000000e+00  0.000000000000000e+00  0.000000000000000e+00  0.000000000000000e+00  0.000000000000000e+00
36  0.000000000000000e+00  0.000000000000000e+00  0.000000000000000e+00  0.000000000000000e+00  0.000000000000000e+00  0.000000000000000e+00
37  0.000000000000000e+00  0.000000000000000e+00  0.000000000000000e+00  0.000000000000000e+00  0.000000000000000e+00  0.000000000000000e+00
38  0.000000000000000e+00  0.000000000000000e+00  0.000000000000000e+00  0.000000000000000e+00  0.000000000000000e+00  0.000000000000000e+00
39  0.000000000000000e+00  0.000000000000000e+00  0.000000000000000e+00  0.000000000000000e+00  0.000000000000000e+00  0.000000000000000e+00
40  0.000000000000000e+00  0.000000000000000e+00  0.000000000000000e+00  0.000000000000000e+00  0.000000000000000e+00  0.000000000000000e+00
41  0.000000000000000e+00  0.000000000000000e+00  0.000000000000000e+00  0.000000000000000e+00  0.000000000000000e+00  0.000000000000000e+00
42  0.000000000000000e+00  0.000000000000000e+00  0.000000000000000e+00  0.000000000000000e+00  0.000000000000000e+00  0.000000000000000e+00
43  0.000000000000000e+00  0.000000000000000e+00  0.000000000000000e+00  0.000000000000000e+00  0.000000000000000e+00  0.000000000000000e+00
44  0.000000000000000e+00  0.000000000000000e+00  0.000000000000000e+00  0.000000000000000e+00  0.000000000000000e+00  0.000000000000000e+00
45  0.000000000000000e+00  0.000000000000000e+00  0.000000000000000e+00  0.000000000000000e+00  0.000000000000000e+00  0.000000000000000e+00
46  0.000000000000000e+00  0.000000000000000e+00  0.000000000000000e+00  0.000000000000000e+00  0.000000000000000e+00  0.000000000000000e+00
47  0.000000000000000e+00  0.000000000000000e+00  0.000000000000000e+00  0.000000000000000e+00  0.000000000000000e+00  0.000000000000000e+00
48  0.000000000000000e+00  0.000000000000000e+00  0.000000000000000e+00  0.000000000000000e+00  0.000000000000000e+00  0.000000000000000e+00
49  0.000000000000000e+00  0.000000000000000e+00  0.000000000000000e+00  0.000000000000000e+00  0.000000000000000e+00  0.000000000000000e+00
50  0.000000000000000e+00  0.000000000000000e+00  0.000000000000000e+00  0.000000000000000e+00  0.000000000000000e+00  0.000000000000000e+00
51  0.000000000000000e+00  0.000000000000000e+00  0.000000000000000e+00  0.000000000000000e+00  0.000000000000000e+00  0.000000000000000e+00
52  0.000000000000000e+00  0.000000000000000e+00  0.000000000000000e+00  0.000000000000000e+00  0.000000000000000e+00  0.000000000000000e+00
53  0.000000000000000e+00  0.000000000000000e+00  0.000000000000000e+00  0.000000000000000e+00  0.000000000000000e+00  0.000000000000000e+00
54  0.000000000000000e+00  0.000000000000000e+00  0.000000000000000e+00  0.000000000000000e+00  0.000000000000000e+00  0.000000000000000e+00
55  0.000000000000000e+00  0.000000000000000e+00  0.000000000000000e+00  0.000000000000000e+00  0.000000000000000e+00  0.000000000000000e+00
56  0.000000000000000e+00  0.000000000000000e+00  0.000000000000000e+00  0.000000000000000e+00  0.000000000000000e+00  0.000000000000000e+00
57  0.000000000000000e+00  0.000000000000000e+00  0.000000000000000e+00  0.000000000000000e+00  0.000000000000000e+00  0.000000000000000e+00
58  0.000000000000000e+00  0.000000000000000e+00  0.000000000000000e+00  0.000000000000000e+00  0.000000000000000e+00  0.000000000000000e+00
59  0.000000000000000e+00  0.000000000000000e+00  0.000000000000000e+00  0.000000000000000e+00  0.000000000000000e+00  0.000000000000000e+00
60  0.000000000000000e+00  0.000000000000000e+00  0.000000000000000e+00  0.000000000000000e+00  0.000000000000000e+00  0.000000000000000e+00
61  0.000000000000000e+00  0.000000000000000e+00  0.000000000000000e+00  0.000000000000000e+00  0.000000000000000e+00  0.000000000000000e+00
62  0.000000000000000e+00  0.000000000000000e+00  0.000000000000000e+00  0.000000000000000e+00  0.000000000000000e+00  0.000000000000000e+00
63  0.000000000000000e+00  0.000000000000000e+00  0.000000000000000e+00  0.000000000000000e+00  0.000000000000000e+00  0.000000000000000e+00
64  0.000000000000000e+00  0.000000000000000e+00  0.000000000000000e+00  0.000000000000000e+00  0.000000000000000e+00  0.000000000000000e+00
65  0.000000000000000e+00  0.000000000000000e+00  0.000000000000000e+00  0.000000000000000e+00  0.000000000000000e+00  0.000000000000000e+00
66  0.000000000000000e+00  0.000000000000000e+00  0.000000000000000e+00  0.000000000000000e+00  0.000000000000000e+00  0.000000000000000e+00
67  0.000000000000000e+00  0.000000000000000e+00  0.000000000000000e+00  0.000000000000000e+00  0.000000000000000e+00  0.000000000000000e+00
68  0.000000000000000e+00  0.000000000000000e+00  0.000000000000000e+00  0.000000000000000e+00  0.000000000000000e+00  0.000000000000000e+00
69  0.000000000000000e+00  0.000000000000000e+00  0.000000000000000e+00  0.000000000000000e+00  0.000000000000000e+00  0.000000000000000e+00
70  0.000000000000000e+00  0.000000000000000e+00  0.000000000000000e+00  0.000000000000000e+00  0.000000000000000e+00  0.000000000000000e+00
71  0.000000000000000e+00  0.000000000000000e+00  0.000000000000000e+00  0.000000000000000e+00  0.000000000000000e+00  0.000000000000000e+00
72  0.000000000000000e+00  0.000000000000000e+00  0.000000000000000e+00  0.000000000000000e+00  0.000000000000000e+00  0.000000000000000e+00
73  0.000000000000000e+00  0.000000000000000e+00  0.000000000000000e+00  0.000000000000000e+00  0.000000000000000e+00  0.000000000000000e+00
74  0.000000000000000e+00  0.000000000000000e+00  0.000000000000000e+00  0.000000000000000e+00  0.000000000000000e+00  0.000000000000000e+00
75  0.000000000000000e+00  0.000000000000000e+00  0.000000000000000e+00  0.000000000000000e+00  0.000000000000000e+00  0.000000000000000e+00
76  0.000000000000000e+00  0.000000000000000e+00  0.000000000000000e+00  0.000000000000000e+00  0.000000000000000e+00  0.000000000000000e+00
77  0.000000000000000e+00  0.000000000000000e+00  0.000000000000000e+00  0.000000000000000e+00  0.000000000000000e+00  0.000000000000000e+00
78  0.000000000000000e+00  0.000000000000000e+00  0.000000000000000e+00  0.000000000000000e+00  0.000000000000000e+00  0.000000000000000e+00
79  0.000000000000000e+00  0.000000000000000e+00  0.000000000000000e+00  0.000000000000000e+00  0.000000000000000e+00  0.000000000000000e+00
80  0.000000000000000e+00  0.000000000000000e+00  0.000000000000000e+00  0.000000000000000e+00  0.000000000000000e+00  0.000000000000000e+00
81  0.000000000000000e+00  0.000000000000000e+00  0.000000000000000e+00  0.000000000000000e+00  0.000000000000000e+00  0.000000000000000e+00
82  0.000000000000000e+00  0.000000000000000e+00  0.000000000000000e+00  0.000000000000000e+00  0.000000000000000e+00  0.000000000000000e+00
83  0.000000000000000e+00  0.000000000000000e+00  0.000000000000000e+00  0.000000000000000e+00  0.000000000000000e+00  0.000000000000000e+00
84  0.000000000000000e+00  0.000000000000000e+00  0.000000000000000e+00  0.000000000000000e+00  0.000000000000000e+00  0.000000000000000e+00
85  0.000000000000000e+00  0.000000000000000e+00  0.000000000000000e+00  0.000000000000000e+00  0.000000000000000e+00  0.000000000000000e+00
86  0.000000000000000e+00  0.000000000000000e+00  0.000000000000000e+00  0.000000000000000e+00  0.000000000000000e+00  0.000000000000000e+00
87  0.000000000000000e+00  0.000000000000000e+00  0.000000000000000e+00  0.000000000000000e+00  0.000000000000000e+00  0.000000000000000e+00
88  0.000000000000000e+00  0.000000000000000e+00  0.000000000000000e+00  0.000000000000000e+00  0.000000000000000e+00  0.000000000000000e+00
89  0.000000000000000e+00  0.000000000000000e+00  0.000000000000000e+00  0.000000000000000e+00  0.000000000000000e+00  0.000000000000000e+00
90  0.000000000000000e+00  0.000000000000000e+00  0.000000000000000e+00  0.000000000000000e+00  0.000000000000000e+00  0.000000000000000e+00
91  0.000000000000000e+00  0.000000000000000e+00  0.000000000000000e+00  0.000000000000000e+00  0.000000000000000e+00  0.000000000000000e+00
92  0.000000000000000e+00  0.000000000000000e+00  0.000000000000000e+00  0.000000000000000e+00  0.000000000000000e+00  0.000000000000000e+00
93  0.000000000000000e+00  0.000000000000000e+00  0.000000000000000e+00  0.000000000000000e+00  0.000000000000000e+00  0.000000000000000e+00
94  0.000000000000000e+00  0.000000000000000e+00  0.000000000000000e+00  0.000000000000000e+00  0.000000000000000e+00  0.000000000000000e+00
95  0.000000000000000e+00  0.000000000000000e+00  0.000000000000000e+00  0.000000000000000e+00  0.000000000000000e+00  0.000000000000000e+00
96  0.000000000000000e+00  0.000000000000000e+00  0.000000000000000e+00  0.000000000000000e+00  0.000000000000000e+00  0.000000000000000e+00
97  0.000000000000000e+00  0.000000000000000e+00  0.000000000000000e+00  0.000000000000000e+00  0.000000000000000e+00  0.000000000000000e+00
98  0.000000000000000e+00  0.000000000000000e+00  0.000000000000000e+00  0.000000000000000e+00  0.000000000000000e+00  0.000000000000000e+00
99  0.000000000000000e+00  0.000000000000000e+00  0.000000000000000e+00  0.000000000000000e+00  0.000000000000000e+00  0.000000000000000e+00
100  0.000000000000000e+00  0.000000000000000e+00  0.000000000000000e+00  0.000000000000000e+00  0.000000000000000e+00  0.000000000000000e+00
101  0.000000000000000e+00  0.000000000000000e+00  0.000000000000000e+00  0.000000000000000e+00  0.000000000000000e+00  0.000000000000000e+00
102  0.000000000000000e+00  0.000000000000000e+00  0.000000000000000e+00  0.000000000000000e+00  0.000000000000000e+00  0.000000000000000e+00
103  0.000000000000000e+00  0.000000000000000e+00  0.000000000000000e+00  0.000000000000000e+00  0.000000000000000e+00  0.000000000000000e+00
104  0.000000000000000e+00  0.000000000000000e+00  0.000000000000000e+00  0.000000000000000e+00  0.000000000000000e+00  0.000000000000000e+00
105  0.000000000000000e+00  0.000000000000000e+00  0.000000000000000e+00  0.000000000000000e+00  0.000000000000000e+00  0.000000000000000e+00
106  0.000000000000000e+00  0.000000000000000e+00  0.000000000000000e+00  0.000000000000000e+00  0.000000000000000e+00  0.000000000000000e+00
107  0.000000000000000e+00  0.000000000000000e+00  0.000000000000000e+00  0.000000000000000e+00  0.000000000000000e+00  0.000000000000000e+00
108  0.000000000000000e+00  0.000000000000000e+00  0.000000000000000e+00  0.000000000000000e+00  0.000000000000000e+00  0.000000000000000e+00
109  0.000000000000000e+00  0.000000000000000e+00  0.000000000000000e+00  0.000000000000000e+00  0.000000000000000e+00  0.000000000000000e+00
110  0.000000000000000e+00  0.000000000000000e+00  0.000000000000000e+00  0.000000000000000e+00  0.000000000000000e+00  0.000000000000000e+00
111  0.000000000000000e+00  0.000000000000000e+00  0.000000000000000e+00  0.000000000000000e+00  0.000000000000000e+00  0.000000000000000e+00
112  0.000000000000000e+00  0.000000000000000e+00  0.000000000000000e+00  0.000000000000000e+00  0.000000000000000e+00  0.000000000000000e+00
113  0.000000000000000e+00  0.000000000000000e+00  0.000000000000000e+00  0.000000000000000e+00  0.000000000000000e+00  0.000000000000000e+00
114  0.000000000000000e+00  0.000000000000000e+00  0.000000000000000e+00  0.000000000000000e+00  0.000000000000000e+00  0.000000000000000e+00
115  0.000000000000000e+00  0.000000000000000e+00  0.000000000000000e+00  0.000000000000000e+00  0.000000000000000e+00  0.000000000000000e+00
116  0.000000000000000e+00  0.000000000000000e+00  0.000000000000000e+00  0.000000000000000e+00  0.000000000000000e+00  0.000000000000000e+00
117  0.000000000000000e+00  0.000000000000000e+00  0.000000000000000e+00  0.000000000000000e+00  0.000000000000000e+00  0.000000000000000e+00
118  0.000000000000000e+00  0.000000000000000e+00  0.000000000000000e+00  0.000000000000000e+00  0.000000000000000e+00  0.000000000000000e+00
119  0.000000000000000e+00  0.000000000000000e+00  0.000000000000000e+00  0.000000000000000e+00  0.000000000000000e+00  0.000000000000000e+00
120  0.000000000000000e+00  0.000000000000000e+00  0.000000000000000e+00  0.000000000000000e+00  0.000000000000000e+00  0.000000000000000e+00
121  0.000000000000000e+00  0.000000000000000e+00  0.000000000000000e+00  0.000000000000000e+00  0.000000000000000e+00  0.000000000000000e+00
122  0.000000000000000e+00  0.000000000000000e+00  0.000000000000000e+00  0.000000000000000e+00  0.000000000000000e+00  0.000000000000000e+00
123  0.000000000000000e+00  0.000000000000000e+00  0.000000000000000e+00  0.000000000000000e+00  0.000000000000000e+00  0.000000000000000e+00
124  0.000000000000000e+00  0.000000000000000e+00  0.000000000000000e+00  0.000000000000000e+00  0.000000000000000e+00  0.000000000000000e+00
125  0.000000000000000e+00  0.000000000000000e+00  0.000000000000000e+00  0.000000000000000e+00  0.000000000000000e+00  0.000000000000000e+00
126  0.000000000000000e+00  0.000000000000000e+00  0.000000000000000e+00  0.000000000000000e+00  0.000000000000000e+00  0.000000000000000e+00

# Atom-ID, shape, quaternion
Ellipsoids

1  1.173984503142341e+00  1.173984503142341e+00  1.173984503142341e+00 -4.230977293053595e-01  1.993079371845570e-01 -8.167495660788374e-02  8.801101403205088e-01
2  1.173984503142341e+00  1.173984503142341e+00  1.173984503142341e+00  7.822194591546278e-01 -1.979428348033603e-01  7.751792756232480e-02 -5.856127754551581e-01
3  1.173984503142341e+00  1.173984503142341e+00  1.173984503142341e+00  9.079174006213080e-01 -1.253866016608629e-01  9.719317653528015e-02 -3.879660812596499e-01
4  1.173984503142341e+00  1.173984503142341e+00  1.173984503142341e+00  9.832314946510401e-01 -1.024809970594884e-01  1.237076271451533e-01 -8.631278094286277e-02
5  1.173984503142341e+00  1.173984503142341e+00  1.173984503142341e+00  9.186052186878332e-01 -1.576197756916727e-01  2.830333405915267e-01  2.263019810429982e-01
6  1.173984503142341e+00  1.173984503142341e+00  1.173984503142341e+00  8.132232432445546e-01 -2.531158299357242e-02  2.953858367955202e-01  5.007738889297022e-01
7  1.173984503142341e+00  1.173984503142341e+00  1.173984503142341e+00  6.019166496280955e-01  7.317308008916985e-02  3.826000595691623e-01  6.971077690489657e-01
8  1.173984503142341e+00  1.173984503142341e+00  1.173984503142341e+00  3.591294472858537e-01  1.373112553917772e-01  3.730651629387667e-01  8.443897461696009e-01
9  1.173984503142341e+00  1.173984503142341e+00  1.173984503142341e+00  7.095894982537646e-02  1.656536892479313e-01  3.001916690762892e-01  9.367009365295956e-01
10  1.173984503142341e+00  1.173984503142341e+00  1.173984503142341e+00 -1.588965679304092e-01  1.731410928829346e-01  2.762352081608415e-01  9.319163870367215e-01